### Running on host: ASUS

     Program PROJWFC v.7.4 starts on 17Apr2025 at 10:56:15 

     This program is part of the open-source Quantum ESPRESSO suite
     for quantum simulation of materials; please cite
         "P. Giannozzi et al., J. Phys.:Condens. Matter 21 395502 (2009);
         "P. Giannozzi et al., J. Phys.:Condens. Matter 29 465901 (2017);
         "P. Giannozzi et al., J. Chem. Phys. 152 154105 (2020);
          URL http://www.quantum-espresso.org", 
     in publications or presentations arising from this work. More details at
     http://www.quantum-espresso.org/quote

     Parallel version (MPI), running on     1 processors

     MPI processes distributed on     1 nodes
     2981 MiB available memory on the printing compute node when the environment starts


     Reading xml data from directory:

     ./output/fe.save/
     file Fe.pbe-nd-rrkjus.UPF: wavefunction(s)  4S renormalized

     IMPORTANT: XC functional enforced from input :
     Exchange-correlation= PBE
                           (   1   4   3   4   0   0   0)
     Any further DFT definition will be discarded
     Please, verify this is what you really want


     G-vector sticks info
     --------------------
     sticks:   dense  smooth     PW     G-vecs:    dense   smooth      PW
     Sum         657     333    103                10761     3805     683

     Using Slab Decomposition


     Linear tetrahedron method (read from file) 
     [opt_tetra]  Linear tetrahedron method is used.

     Calling projwave .... 
     Subspace diagonalization in iterative solution of the eigenvalue problem:
     a serial algorithm will be used


  Problem Sizes 
  natomwfc =            6
  nbnd     =            8
  nkstot   =          136
  npwx     =          486
  nkb      =           18


     Atomic states used for projection
     (read from pseudopotential files):

     state #   1: atom   1 (Fe ), wfc  1 (l=0 m= 1)
     state #   2: atom   1 (Fe ), wfc  2 (l=2 m= 1)
     state #   3: atom   1 (Fe ), wfc  2 (l=2 m= 2)
     state #   4: atom   1 (Fe ), wfc  2 (l=2 m= 3)
     state #   5: atom   1 (Fe ), wfc  2 (l=2 m= 4)
     state #   6: atom   1 (Fe ), wfc  2 (l=2 m= 5)

 k =   0.0000000000  0.0000000000  0.0833333333
==== e(   1) =     4.88226 eV ==== 
     psi = 0.998*[#   1]
    |psi|^2 = 0.998
==== e(   2) =    10.61107 eV ==== 
     psi = 0.333*[#   3]+0.333*[#   4]+0.333*[#   6]
    |psi|^2 = 0.999
==== e(   3) =    10.61107 eV ==== 
     psi = 0.333*[#   3]+0.333*[#   4]+0.333*[#   6]
    |psi|^2 = 0.999
==== e(   4) =    10.64885 eV ==== 
     psi = 0.333*[#   3]+0.333*[#   4]+0.333*[#   6]
    |psi|^2 = 0.999
==== e(   5) =    11.68038 eV ==== 
     psi = 0.500*[#   2]+0.500*[#   5]
    |psi|^2 = 0.999
==== e(   6) =    11.76391 eV ==== 
     psi = 0.499*[#   2]+0.499*[#   5]
    |psi|^2 = 0.999
==== e(   7) =    36.41978 eV ==== 

    |psi|^2 = 0.000
==== e(   8) =    37.16778 eV ==== 

    |psi|^2 = 0.000

 k =   0.0000000000 -0.0833333333  0.1666666667
==== e(   1) =     5.43037 eV ==== 
     psi = 0.991*[#   1]+0.002*[#   2]+0.002*[#   5]+0.001*[#   3]+0.001*[#   4]
          +0.001*[#   6]
    |psi|^2 = 0.998
==== e(   2) =    10.48533 eV ==== 
     psi = 0.333*[#   3]+0.333*[#   4]+0.333*[#   6]
    |psi|^2 = 0.999
==== e(   3) =    10.59336 eV ==== 
     psi = 0.323*[#   3]+0.323*[#   4]+0.323*[#   6]+0.013*[#   2]+0.013*[#   5]
          +0.004*[#   1]
    |psi|^2 = 0.999
==== e(   4) =    10.92240 eV ==== 
     psi = 0.333*[#   3]+0.333*[#   4]+0.333*[#   6]
    |psi|^2 = 0.999
==== e(   5) =    11.53584 eV ==== 
     psi = 0.487*[#   2]+0.487*[#   5]+0.008*[#   3]+0.008*[#   4]+0.008*[#   6]
          
    |psi|^2 = 0.999
==== e(   6) =    11.80376 eV ==== 
     psi = 0.497*[#   2]+0.497*[#   5]+0.003*[#   1]
    |psi|^2 = 0.999
==== e(   7) =    33.96398 eV ==== 

    |psi|^2 = 0.000
==== e(   8) =    36.12791 eV ==== 

    |psi|^2 = 0.000

 k =   0.0000000000 -0.1666666667  0.2500000000
==== e(   1) =     6.42884 eV ==== 
     psi = 0.934*[#   1]+0.014*[#   3]+0.014*[#   4]+0.014*[#   6]+0.011*[#   2]
          +0.011*[#   5]
    |psi|^2 = 0.998
==== e(   2) =    10.25363 eV ==== 
     psi = 0.333*[#   3]+0.333*[#   4]+0.333*[#   6]
    |psi|^2 = 0.999
==== e(   3) =    10.50572 eV ==== 
     psi = 0.254*[#   3]+0.254*[#   4]+0.254*[#   6]+0.092*[#   2]+0.092*[#   5]
          +0.054*[#   1]
    |psi|^2 = 0.999
==== e(   4) =    11.44248 eV ==== 
     psi = 0.333*[#   3]+0.333*[#   4]+0.333*[#   6]
    |psi|^2 = 0.999
==== e(   5) =    11.47399 eV ==== 
     psi = 0.406*[#   2]+0.406*[#   5]+0.062*[#   3]+0.062*[#   4]+0.062*[#   6]
          
    |psi|^2 = 0.999
==== e(   6) =    11.84942 eV ==== 
     psi = 0.491*[#   2]+0.491*[#   5]+0.010*[#   1]+0.002*[#   3]+0.002*[#   4]
          +0.002*[#   6]
    |psi|^2 = 0.999
==== e(   7) =    30.32562 eV ==== 

    |psi|^2 = 0.000
==== e(   8) =    34.38334 eV ==== 

    |psi|^2 = 0.000

 k =   0.0000000000 -0.2500000000  0.3333333333
==== e(   1) =     7.54422 eV ==== 
     psi = 0.667*[#   1]+0.075*[#   3]+0.075*[#   4]+0.075*[#   6]+0.052*[#   2]
          +0.052*[#   5]
    |psi|^2 = 0.996
==== e(   2) =     9.99453 eV ==== 
     psi = 0.333*[#   3]+0.333*[#   4]+0.333*[#   6]
    |psi|^2 = 1.000
==== e(   3) =    10.58502 eV ==== 
     psi = 0.268*[#   1]+0.179*[#   2]+0.179*[#   5]+0.123*[#   3]+0.123*[#   4]
          +0.123*[#   6]
    |psi|^2 = 0.996
==== e(   4) =    11.59924 eV ==== 
     psi = 0.290*[#   2]+0.290*[#   5]+0.135*[#   3]+0.135*[#   4]+0.135*[#   6]
          +0.015*[#   1]
    |psi|^2 = 0.999
==== e(   5) =    11.92162 eV ==== 
     psi = 0.478*[#   2]+0.478*[#   5]+0.042*[#   1]
    |psi|^2 = 0.998
==== e(   6) =    12.09281 eV ==== 
     psi = 0.333*[#   3]+0.333*[#   4]+0.333*[#   6]
    |psi|^2 = 0.999
==== e(   7) =    26.50417 eV ==== 
     psi = 0.006*[#   1]
    |psi|^2 = 0.006
==== e(   8) =    32.75909 eV ==== 

    |psi|^2 = 0.000

 k =   0.0000000000 -0.3333333333  0.4166666667
==== e(   1) =     8.11625 eV ==== 
     psi = 0.230*[#   1]+0.166*[#   3]+0.166*[#   4]+0.166*[#   6]+0.134*[#   2]
          +0.134*[#   5]
    |psi|^2 = 0.995
==== e(   2) =     9.77726 eV ==== 
     psi = 0.333*[#   3]+0.333*[#   4]+0.333*[#   6]
    |psi|^2 = 1.000
==== e(   3) =    11.22468 eV ==== 
     psi = 0.338*[#   2]+0.338*[#   5]+0.290*[#   1]+0.001*[#   3]+0.001*[#   4]
          +0.001*[#   6]
    |psi|^2 = 0.971
==== e(   4) =    11.78943 eV ==== 
     psi = 0.304*[#   2]+0.304*[#   5]+0.125*[#   3]+0.125*[#   4]+0.125*[#   6]
          +0.013*[#   1]
    |psi|^2 = 0.996
==== e(   5) =    12.32276 eV ==== 
     psi = 0.393*[#   1]+0.222*[#   2]+0.222*[#   5]+0.040*[#   3]+0.040*[#   4]
          +0.040*[#   6]
    |psi|^2 = 0.956
==== e(   6) =    12.70957 eV ==== 
     psi = 0.333*[#   3]+0.333*[#   4]+0.333*[#   6]
    |psi|^2 = 0.999
==== e(   7) =    22.98296 eV ==== 
     psi = 0.071*[#   1]+0.002*[#   3]+0.002*[#   4]+0.002*[#   6]
    |psi|^2 = 0.077
==== e(   8) =    31.55375 eV ==== 

    |psi|^2 = 0.000

 k =   0.0000000000 -0.4166666667  0.5000000000
==== e(   1) =     8.18884 eV ==== 
     psi = 0.195*[#   3]+0.195*[#   4]+0.195*[#   6]+0.176*[#   2]+0.176*[#   5]
          +0.062*[#   1]
    |psi|^2 = 0.998
==== e(   2) =     9.65464 eV ==== 
     psi = 0.333*[#   3]+0.333*[#   4]+0.333*[#   6]
    |psi|^2 = 1.000
==== e(   3) =    11.61219 eV ==== 
     psi = 0.445*[#   2]+0.445*[#   5]+0.029*[#   1]+0.013*[#   3]+0.013*[#   4]
          +0.013*[#   6]
    |psi|^2 = 0.957
==== e(   4) =    11.79302 eV ==== 
     psi = 0.340*[#   2]+0.340*[#   5]+0.105*[#   3]+0.105*[#   4]+0.105*[#   6]
          
    |psi|^2 = 0.995
==== e(   5) =    13.09382 eV ==== 
     psi = 0.333*[#   3]+0.333*[#   4]+0.333*[#   6]
    |psi|^2 = 0.999
==== e(   6) =    13.57445 eV ==== 
     psi = 0.286*[#   1]+0.036*[#   2]+0.036*[#   5]+0.010*[#   3]+0.010*[#   4]
          +0.010*[#   6]
    |psi|^2 = 0.389
==== e(   7) =    20.39100 eV ==== 
     psi = 0.614*[#   1]+0.010*[#   3]+0.010*[#   4]+0.010*[#   6]+0.002*[#   2]
          +0.002*[#   5]
    |psi|^2 = 0.649
==== e(   8) =    30.91620 eV ==== 

    |psi|^2 = 0.000

 k =  -0.0833333333  0.0833333333  0.0833333333
==== e(   1) =     5.15944 eV ==== 
     psi = 0.996*[#   1]
    |psi|^2 = 0.998
==== e(   2) =    10.52983 eV ==== 
     psi = 0.331*[#   3]+0.331*[#   4]+0.331*[#   6]+0.004*[#   2]+0.004*[#   5]
          
    |psi|^2 = 0.999
==== e(   3) =    10.52983 eV ==== 
     psi = 0.331*[#   3]+0.331*[#   4]+0.331*[#   6]+0.004*[#   2]+0.004*[#   5]
          
    |psi|^2 = 0.999
==== e(   4) =    10.86748 eV ==== 
     psi = 0.332*[#   3]+0.332*[#   4]+0.332*[#   6]+0.002*[#   1]
    |psi|^2 = 0.999
==== e(   5) =    11.69952 eV ==== 
     psi = 0.496*[#   2]+0.496*[#   5]+0.002*[#   3]+0.002*[#   4]+0.002*[#   6]
          
    |psi|^2 = 0.999
==== e(   6) =    11.69952 eV ==== 
     psi = 0.496*[#   2]+0.496*[#   5]+0.002*[#   3]+0.002*[#   4]+0.002*[#   6]
          
    |psi|^2 = 0.999
==== e(   7) =    35.47491 eV ==== 

    |psi|^2 = 0.000
==== e(   8) =    35.47491 eV ==== 

    |psi|^2 = 0.000

 k =  -0.0833333333 -0.0833333333  0.2500000000
==== e(   1) =     6.20044 eV ==== 
     psi = 0.959*[#   1]+0.010*[#   2]+0.010*[#   5]+0.007*[#   3]+0.007*[#   4]
          +0.007*[#   6]
    |psi|^2 = 0.998
==== e(   2) =    10.41767 eV ==== 
     psi = 0.328*[#   3]+0.328*[#   4]+0.328*[#   6]+0.010*[#   1]+0.002*[#   2]
          +0.002*[#   5]
    |psi|^2 = 1.000
==== e(   3) =    10.46650 eV ==== 
     psi = 0.295*[#   3]+0.295*[#   4]+0.295*[#   6]+0.057*[#   2]+0.057*[#   5]
          
    |psi|^2 = 1.000
==== e(   4) =    11.30047 eV ==== 
     psi = 0.329*[#   3]+0.329*[#   4]+0.329*[#   6]+0.012*[#   1]
    |psi|^2 = 0.999
==== e(   5) =    11.36757 eV ==== 
     psi = 0.443*[#   2]+0.443*[#   5]+0.038*[#   3]+0.038*[#   4]+0.038*[#   6]
          
    |psi|^2 = 0.999
==== e(   6) =    11.89535 eV ==== 
     psi = 0.487*[#   2]+0.487*[#   5]+0.017*[#   1]+0.002*[#   3]+0.002*[#   4]
          +0.002*[#   6]
    |psi|^2 = 0.999
==== e(   7) =    31.94874 eV ==== 

    |psi|^2 = 0.000
==== e(   8) =    33.32151 eV ==== 

    |psi|^2 = 0.000

 k =  -0.0833333333 -0.1666666667  0.3333333333
==== e(   1) =     7.28833 eV ==== 
     psi = 0.815*[#   1]+0.037*[#   2]+0.037*[#   5]+0.036*[#   3]+0.036*[#   4]
          +0.036*[#   6]
    |psi|^2 = 0.998
==== e(   2) =    10.17735 eV ==== 
     psi = 0.295*[#   3]+0.295*[#   4]+0.295*[#   6]+0.057*[#   2]+0.057*[#   5]
          
    |psi|^2 = 1.000
==== e(   3) =    10.34557 eV ==== 
     psi = 0.239*[#   3]+0.239*[#   4]+0.239*[#   6]+0.107*[#   2]+0.107*[#   5]
          +0.070*[#   1]
    |psi|^2 = 0.999
==== e(   4) =    11.38155 eV ==== 
     psi = 0.333*[#   2]+0.333*[#   5]+0.110*[#   3]+0.110*[#   4]+0.110*[#   6]
          +0.002*[#   1]
    |psi|^2 = 0.999
==== e(   5) =    11.88633 eV ==== 
     psi = 0.232*[#   3]+0.232*[#   4]+0.232*[#   6]+0.151*[#   2]+0.151*[#   5]
          +0.002*[#   1]
    |psi|^2 = 0.999
==== e(   6) =    12.06064 eV ==== 
     psi = 0.315*[#   2]+0.315*[#   5]+0.108*[#   1]+0.087*[#   3]+0.087*[#   4]
          +0.087*[#   6]
    |psi|^2 = 0.998
==== e(   7) =    28.59892 eV ==== 
     psi = 0.001*[#   1]
    |psi|^2 = 0.001
==== e(   8) =    31.23955 eV ==== 

    |psi|^2 = 0.001

 k =  -0.0833333333 -0.2500000000  0.4166666667
==== e(   1) =     8.17202 eV ==== 
     psi = 0.409*[#   1]+0.124*[#   3]+0.124*[#   4]+0.124*[#   6]+0.107*[#   2]
          +0.107*[#   5]
    |psi|^2 = 0.995
==== e(   2) =     9.93932 eV ==== 
     psi = 0.308*[#   3]+0.308*[#   4]+0.308*[#   6]+0.037*[#   2]+0.037*[#   5]
          +0.001*[#   1]
    |psi|^2 = 1.000
==== e(   3) =    10.50106 eV ==== 
     psi = 0.229*[#   2]+0.229*[#   5]+0.217*[#   1]+0.106*[#   3]+0.106*[#   4]
          +0.106*[#   6]
    |psi|^2 = 0.992
==== e(   4) =    11.58574 eV ==== 
     psi = 0.251*[#   2]+0.251*[#   5]+0.162*[#   3]+0.162*[#   4]+0.162*[#   6]
          +0.011*[#   1]
    |psi|^2 = 0.999
==== e(   5) =    12.12351 eV ==== 
     psi = 0.320*[#   2]+0.320*[#   5]+0.095*[#   3]+0.095*[#   4]+0.095*[#   6]
          +0.070*[#   1]
    |psi|^2 = 0.997
==== e(   6) =    12.85642 eV ==== 
     psi = 0.268*[#   1]+0.204*[#   3]+0.204*[#   4]+0.204*[#   6]+0.054*[#   2]
          +0.054*[#   5]
    |psi|^2 = 0.989
==== e(   7) =    24.89724 eV ==== 
     psi = 0.019*[#   1]
    |psi|^2 = 0.021
==== e(   8) =    29.91081 eV ==== 
     psi = 0.001*[#   1]
    |psi|^2 = 0.002

 k =  -0.0833333333 -0.3333333333  0.5000000000
==== e(   1) =     8.39712 eV ==== 
     psi = 0.182*[#   3]+0.182*[#   4]+0.182*[#   6]+0.173*[#   2]+0.173*[#   5]
          +0.105*[#   1]
    |psi|^2 = 0.997
==== e(   2) =     9.79001 eV ==== 
     psi = 0.326*[#   3]+0.326*[#   4]+0.326*[#   6]+0.011*[#   2]+0.011*[#   5]
          
    |psi|^2 = 1.000
==== e(   3) =    10.93564 eV ==== 
     psi = 0.374*[#   2]+0.374*[#   5]+0.112*[#   1]+0.034*[#   3]+0.034*[#   4]
          +0.034*[#   6]
    |psi|^2 = 0.963
==== e(   4) =    11.71308 eV ==== 
     psi = 0.292*[#   2]+0.292*[#   5]+0.138*[#   3]+0.138*[#   4]+0.138*[#   6]
          
    |psi|^2 = 0.997
==== e(   5) =    12.54879 eV ==== 
     psi = 0.226*[#   3]+0.226*[#   4]+0.226*[#   6]+0.113*[#   2]+0.113*[#   5]
          +0.071*[#   1]
    |psi|^2 = 0.976
==== e(   6) =    14.06816 eV ==== 
     psi = 0.479*[#   1]+0.090*[#   3]+0.090*[#   4]+0.090*[#   6]+0.034*[#   2]
          +0.034*[#   5]
    |psi|^2 = 0.818
==== e(   7) =    21.65812 eV ==== 
     psi = 0.224*[#   1]+0.004*[#   3]+0.004*[#   4]+0.004*[#   6]
    |psi|^2 = 0.238
==== e(   8) =    29.04598 eV ==== 
     psi = 0.004*[#   1]
    |psi|^2 = 0.004

 k =  -0.0833333333  0.5833333333 -0.4166666667
==== e(   1) =     8.39307 eV ==== 
     psi = 0.191*[#   2]+0.191*[#   5]+0.191*[#   3]+0.191*[#   4]+0.191*[#   6]
          +0.043*[#   1]
    |psi|^2 = 1.000
==== e(   2) =     9.73710 eV ==== 
     psi = 0.330*[#   3]+0.330*[#   4]+0.330*[#   6]+0.005*[#   2]+0.005*[#   5]
          
    |psi|^2 = 1.000
==== e(   3) =    11.11919 eV ==== 
     psi = 0.427*[#   2]+0.427*[#   5]+0.024*[#   3]+0.024*[#   4]+0.024*[#   6]
          
    |psi|^2 = 0.928
==== e(   4) =    11.71309 eV ==== 
     psi = 0.300*[#   2]+0.300*[#   5]+0.131*[#   3]+0.131*[#   4]+0.131*[#   6]
          +0.005*[#   1]
    |psi|^2 = 0.999
==== e(   5) =    12.79444 eV ==== 
     psi = 0.279*[#   3]+0.279*[#   4]+0.279*[#   6]+0.056*[#   2]+0.056*[#   5]
          
    |psi|^2 = 0.947
==== e(   6) =    15.03583 eV ==== 
     psi = 0.030*[#   3]+0.030*[#   4]+0.030*[#   6]+0.017*[#   2]+0.017*[#   5]
          
    |psi|^2 = 0.123
==== e(   7) =    20.01380 eV ==== 
     psi = 0.934*[#   1]+0.014*[#   3]+0.014*[#   4]+0.014*[#   6]+0.003*[#   2]
          +0.003*[#   5]
    |psi|^2 = 0.982
==== e(   8) =    28.73807 eV ==== 
     psi = 0.008*[#   1]
    |psi|^2 = 0.008

 k =  -0.1666666667  0.1666666667  0.0833333333
==== e(   1) =     5.95019 eV ==== 
     psi = 0.973*[#   1]+0.008*[#   3]+0.008*[#   4]+0.008*[#   6]+0.001*[#   2]
          +0.001*[#   5]
    |psi|^2 = 0.998
==== e(   2) =    10.32195 eV ==== 
     psi = 0.328*[#   3]+0.328*[#   4]+0.328*[#   6]+0.008*[#   2]+0.008*[#   5]
          
    |psi|^2 = 0.999
==== e(   3) =    10.43592 eV ==== 
     psi = 0.305*[#   3]+0.305*[#   4]+0.305*[#   6]+0.038*[#   2]+0.038*[#   5]
          +0.008*[#   1]
    |psi|^2 = 1.000
==== e(   4) =    11.31911 eV ==== 
     psi = 0.327*[#   3]+0.327*[#   4]+0.327*[#   6]+0.017*[#   1]+0.001*[#   2]
          +0.001*[#   5]
    |psi|^2 = 0.999
==== e(   5) =    11.59898 eV ==== 
     psi = 0.459*[#   2]+0.459*[#   5]+0.027*[#   3]+0.027*[#   4]+0.027*[#   6]
          
    |psi|^2 = 0.999
==== e(   6) =    11.74451 eV ==== 
     psi = 0.492*[#   2]+0.492*[#   5]+0.005*[#   3]+0.005*[#   4]+0.005*[#   6]
          
    |psi|^2 = 0.999
==== e(   7) =    32.19753 eV ==== 

    |psi|^2 = 0.000
==== e(   8) =    33.98877 eV ==== 

    |psi|^2 = 0.000

 k =  -0.1666666667 -0.1666666667  0.4166666667
==== e(   1) =     8.24921 eV ==== 
     psi = 0.538*[#   1]+0.095*[#   3]+0.095*[#   4]+0.095*[#   6]+0.087*[#   2]
          +0.087*[#   5]
    |psi|^2 = 0.996
==== e(   2) =     9.91284 eV ==== 
     psi = 0.220*[#   2]+0.220*[#   5]+0.186*[#   3]+0.186*[#   4]+0.186*[#   6]
          
    |psi|^2 = 1.000
==== e(   3) =    10.29140 eV ==== 
     psi = 0.295*[#   3]+0.295*[#   4]+0.295*[#   6]+0.095*[#   1]+0.010*[#   2]
          +0.010*[#   5]
    |psi|^2 = 0.998
==== e(   4) =    11.43028 eV ==== 
     psi = 0.280*[#   2]+0.280*[#   5]+0.147*[#   3]+0.147*[#   4]+0.147*[#   6]
          
    |psi|^2 = 0.999
==== e(   5) =    12.06827 eV ==== 
     psi = 0.340*[#   2]+0.340*[#   5]+0.095*[#   3]+0.095*[#   4]+0.095*[#   6]
          +0.031*[#   1]
    |psi|^2 = 0.999
==== e(   6) =    12.96395 eV ==== 
     psi = 0.325*[#   1]+0.181*[#   3]+0.181*[#   4]+0.181*[#   6]+0.062*[#   2]
          +0.062*[#   5]
    |psi|^2 = 0.993
==== e(   7) =    26.87701 eV ==== 

    |psi|^2 = 0.000
==== e(   8) =    27.67505 eV ==== 
     psi = 0.009*[#   1]
    |psi|^2 = 0.010

 k =  -0.1666666667 -0.2500000000  0.5000000000
==== e(   1) =     8.77755 eV ==== 
     psi = 0.179*[#   1]+0.178*[#   3]+0.178*[#   4]+0.178*[#   6]+0.142*[#   2]
          +0.142*[#   5]
    |psi|^2 = 0.995
==== e(   2) =     9.75814 eV ==== 
     psi = 0.207*[#   3]+0.207*[#   4]+0.207*[#   6]+0.185*[#   2]+0.185*[#   5]
          +0.007*[#   1]
    |psi|^2 = 0.998
==== e(   3) =    10.38227 eV ==== 
     psi = 0.193*[#   3]+0.193*[#   4]+0.193*[#   6]+0.154*[#   2]+0.154*[#   5]
          +0.102*[#   1]
    |psi|^2 = 0.990
==== e(   4) =    11.61364 eV ==== 
     psi = 0.246*[#   2]+0.246*[#   5]+0.169*[#   3]+0.169*[#   4]+0.169*[#   6]
          
    |psi|^2 = 0.999
==== e(   5) =    12.23811 eV ==== 
     psi = 0.241*[#   2]+0.241*[#   5]+0.156*[#   3]+0.156*[#   4]+0.156*[#   6]
          +0.048*[#   1]
    |psi|^2 = 0.996
==== e(   6) =    14.38916 eV ==== 
     psi = 0.583*[#   1]+0.096*[#   3]+0.096*[#   4]+0.096*[#   6]+0.031*[#   2]
          +0.031*[#   5]
    |psi|^2 = 0.933
==== e(   7) =    23.61632 eV ==== 
     psi = 0.054*[#   1]
    |psi|^2 = 0.057
==== e(   8) =    26.25969 eV ==== 
     psi = 0.023*[#   1]
    |psi|^2 = 0.024

 k =  -0.1666666667  0.6666666667 -0.4166666667
==== e(   1) =     8.80764 eV ==== 
     psi = 0.194*[#   3]+0.194*[#   4]+0.194*[#   6]+0.186*[#   2]+0.186*[#   5]
          +0.044*[#   1]
    |psi|^2 = 0.998
==== e(   2) =     9.78475 eV ==== 
     psi = 0.291*[#   3]+0.291*[#   4]+0.291*[#   6]+0.062*[#   2]+0.062*[#   5]
          
    |psi|^2 = 0.999
==== e(   3) =    10.48723 eV ==== 
     psi = 0.346*[#   2]+0.346*[#   5]+0.084*[#   3]+0.084*[#   4]+0.084*[#   6]
          +0.020*[#   1]
    |psi|^2 = 0.963
==== e(   4) =    11.72985 eV ==== 
     psi = 0.261*[#   2]+0.261*[#   5]+0.158*[#   3]+0.158*[#   4]+0.158*[#   6]
          +0.003*[#   1]
    |psi|^2 = 0.999
==== e(   5) =    12.45537 eV ==== 
     psi = 0.235*[#   3]+0.235*[#   4]+0.235*[#   6]+0.133*[#   2]+0.133*[#   5]
          +0.011*[#   1]
    |psi|^2 = 0.983
==== e(   6) =    16.14125 eV ==== 
     psi = 0.312*[#   1]+0.029*[#   3]+0.029*[#   4]+0.029*[#   6]+0.010*[#   2]
          +0.010*[#   5]
    |psi|^2 = 0.420
==== e(   7) =    20.74228 eV ==== 
     psi = 0.541*[#   1]+0.007*[#   3]+0.007*[#   4]+0.007*[#   6]+0.001*[#   2]
          +0.001*[#   5]
    |psi|^2 = 0.565
==== e(   8) =    25.65524 eV ==== 
     psi = 0.059*[#   1]
    |psi|^2 = 0.060

 k =  -0.2500000000  0.2500000000  0.0833333333
==== e(   1) =     7.07608 eV ==== 
     psi = 0.842*[#   1]+0.041*[#   3]+0.041*[#   4]+0.041*[#   6]+0.016*[#   2]
          +0.016*[#   5]
    |psi|^2 = 0.998
==== e(   2) =    10.06039 eV ==== 
     psi = 0.329*[#   3]+0.329*[#   4]+0.329*[#   6]+0.007*[#   2]+0.007*[#   5]
          
    |psi|^2 = 1.000
==== e(   3) =    10.36166 eV ==== 
     psi = 0.233*[#   3]+0.233*[#   4]+0.233*[#   6]+0.101*[#   1]+0.100*[#   2]
          +0.100*[#   5]
    |psi|^2 = 0.999
==== e(   4) =    11.60624 eV ==== 
     psi = 0.383*[#   2]+0.383*[#   5]+0.077*[#   3]+0.077*[#   4]+0.077*[#   6]
          +0.001*[#   1]
    |psi|^2 = 0.999
==== e(   5) =    11.79920 eV ==== 
     psi = 0.493*[#   2]+0.493*[#   5]+0.004*[#   3]+0.004*[#   4]+0.004*[#   6]
          
    |psi|^2 = 0.999
==== e(   6) =    11.96946 eV ==== 
     psi = 0.315*[#   3]+0.315*[#   4]+0.315*[#   6]+0.053*[#   1]
    |psi|^2 = 0.999
==== e(   7) =    28.42311 eV ==== 
     psi = 0.001*[#   1]
    |psi|^2 = 0.002
==== e(   8) =    32.47584 eV ==== 

    |psi|^2 = 0.000

 k =  -0.2500000000  0.1666666667  0.1666666667
==== e(   1) =     6.90462 eV ==== 
     psi = 0.900*[#   1]+0.029*[#   3]+0.029*[#   4]+0.029*[#   6]+0.005*[#   2]
          +0.005*[#   5]
    |psi|^2 = 0.998
==== e(   2) =    10.15101 eV ==== 
     psi = 0.317*[#   3]+0.317*[#   4]+0.317*[#   6]+0.018*[#   2]+0.018*[#   5]
          +0.012*[#   1]
    |psi|^2 = 1.000
==== e(   3) =    10.16927 eV ==== 
     psi = 0.285*[#   3]+0.285*[#   4]+0.285*[#   6]+0.072*[#   2]+0.072*[#   5]
          
    |psi|^2 = 1.000
==== e(   4) =    11.58850 eV ==== 
     psi = 0.428*[#   2]+0.428*[#   5]+0.048*[#   3]+0.048*[#   4]+0.048*[#   6]
          
    |psi|^2 = 0.999
==== e(   5) =    11.79802 eV ==== 
     psi = 0.470*[#   2]+0.470*[#   5]+0.019*[#   3]+0.019*[#   4]+0.019*[#   6]
          +0.002*[#   1]
    |psi|^2 = 0.999
==== e(   6) =    11.97447 eV ==== 
     psi = 0.301*[#   3]+0.301*[#   4]+0.301*[#   6]+0.084*[#   1]+0.006*[#   2]
          +0.006*[#   5]
    |psi|^2 = 0.999
==== e(   7) =    30.18914 eV ==== 

    |psi|^2 = 0.000
==== e(   8) =    31.09627 eV ==== 

    |psi|^2 = 0.000

 k =  -0.2500000000  0.7500000000 -0.4166666667
==== e(   1) =     9.20900 eV ==== 
     psi = 0.248*[#   3]+0.248*[#   4]+0.248*[#   6]+0.096*[#   2]+0.096*[#   5]
          +0.057*[#   1]
    |psi|^2 = 0.995
==== e(   2) =     9.59544 eV ==== 
     psi = 0.287*[#   2]+0.287*[#   5]+0.141*[#   3]+0.141*[#   4]+0.141*[#   6]
          
    |psi|^2 = 0.997
==== e(   3) =    10.21408 eV ==== 
     psi = 0.204*[#   2]+0.204*[#   5]+0.185*[#   3]+0.185*[#   4]+0.185*[#   6]
          +0.025*[#   1]
    |psi|^2 = 0.987
==== e(   4) =    11.79638 eV ==== 
     psi = 0.213*[#   2]+0.213*[#   5]+0.191*[#   3]+0.191*[#   4]+0.191*[#   6]
          
    |psi|^2 = 0.999
==== e(   5) =    12.26869 eV ==== 
     psi = 0.198*[#   3]+0.198*[#   4]+0.198*[#   6]+0.190*[#   2]+0.190*[#   5]
          +0.020*[#   1]
    |psi|^2 = 0.994
==== e(   6) =    16.46923 eV ==== 
     psi = 0.569*[#   1]+0.033*[#   3]+0.033*[#   4]+0.033*[#   6]+0.010*[#   2]
          +0.010*[#   5]
    |psi|^2 = 0.687
==== e(   7) =    22.28816 eV ==== 

    |psi|^2 = 0.003
==== e(   8) =    23.34104 eV ==== 
     psi = 0.321*[#   1]+0.002*[#   3]+0.002*[#   4]+0.002*[#   6]
    |psi|^2 = 0.328

 k =  -0.2500000000  0.6666666667 -0.3333333333
==== e(   1) =     9.28005 eV ==== 
     psi = 0.243*[#   3]+0.243*[#   4]+0.243*[#   6]+0.125*[#   2]+0.125*[#   5]
          +0.020*[#   1]
    |psi|^2 = 0.998
==== e(   2) =     9.73348 eV ==== 
     psi = 0.221*[#   3]+0.221*[#   4]+0.221*[#   6]+0.167*[#   2]+0.167*[#   5]
          
    |psi|^2 = 0.997
==== e(   3) =    10.00605 eV ==== 
     psi = 0.337*[#   2]+0.337*[#   5]+0.102*[#   3]+0.102*[#   4]+0.102*[#   6]
          
    |psi|^2 = 0.980
==== e(   4) =    11.93186 eV ==== 
     psi = 0.207*[#   2]+0.207*[#   5]+0.194*[#   3]+0.194*[#   4]+0.194*[#   6]
          +0.002*[#   1]
    |psi|^2 = 0.998
==== e(   5) =    12.25092 eV ==== 
     psi = 0.224*[#   3]+0.224*[#   4]+0.224*[#   6]+0.161*[#   2]+0.161*[#   5]
          
    |psi|^2 = 0.992
==== e(   6) =    18.31621 eV ==== 
     psi = 0.007*[#   3]+0.007*[#   4]+0.007*[#   6]+0.002*[#   2]+0.002*[#   5]
          
    |psi|^2 = 0.026
==== e(   7) =    20.27311 eV ==== 
     psi = 0.469*[#   1]+0.006*[#   3]+0.006*[#   4]+0.006*[#   6]
    |psi|^2 = 0.489
==== e(   8) =    22.76341 eV ==== 
     psi = 0.497*[#   1]+0.002*[#   3]+0.002*[#   4]+0.002*[#   6]
    |psi|^2 = 0.504

 k =  -0.3333333333  0.3333333333  0.0833333333
==== e(   1) =     7.99438 eV ==== 
     psi = 0.429*[#   1]+0.135*[#   3]+0.135*[#   4]+0.135*[#   6]+0.081*[#   2]
          +0.081*[#   5]
    |psi|^2 = 0.995
==== e(   2) =     9.81615 eV ==== 
     psi = 0.331*[#   3]+0.331*[#   4]+0.331*[#   6]+0.004*[#   2]+0.004*[#   5]
          
    |psi|^2 = 1.000
==== e(   3) =    10.78182 eV ==== 
     psi = 0.392*[#   1]+0.127*[#   3]+0.127*[#   4]+0.127*[#   6]+0.107*[#   2]
          +0.107*[#   5]
    |psi|^2 = 0.986
==== e(   4) =    11.71770 eV ==== 
     psi = 0.312*[#   2]+0.312*[#   5]+0.125*[#   3]+0.125*[#   4]+0.125*[#   6]
          +0.002*[#   1]
    |psi|^2 = 0.999
==== e(   5) =    11.85475 eV ==== 
     psi = 0.496*[#   2]+0.496*[#   5]+0.002*[#   3]+0.002*[#   4]+0.002*[#   6]
          
    |psi|^2 = 0.999
==== e(   6) =    12.74799 eV ==== 
     psi = 0.279*[#   3]+0.279*[#   4]+0.279*[#   6]+0.155*[#   1]
    |psi|^2 = 0.993
==== e(   7) =    24.71113 eV ==== 
     psi = 0.020*[#   1]
    |psi|^2 = 0.022
==== e(   8) =    31.19898 eV ==== 

    |psi|^2 = 0.000

 k =  -0.3333333333  0.2500000000  0.1666666667
==== e(   1) =     7.99642 eV ==== 
     psi = 0.643*[#   1]+0.097*[#   3]+0.097*[#   4]+0.097*[#   6]+0.032*[#   2]
          +0.032*[#   5]
    |psi|^2 = 0.996
==== e(   2) =     9.89137 eV ==== 
     psi = 0.302*[#   3]+0.302*[#   4]+0.302*[#   6]+0.046*[#   2]+0.046*[#   5]
          
    |psi|^2 = 1.000
==== e(   3) =    10.12888 eV ==== 
     psi = 0.249*[#   3]+0.249*[#   4]+0.249*[#   6]+0.108*[#   1]+0.073*[#   2]
          +0.073*[#   5]
    |psi|^2 = 0.998
==== e(   4) =    11.63645 eV ==== 
     psi = 0.377*[#   2]+0.377*[#   5]+0.082*[#   3]+0.082*[#   4]+0.082*[#   6]
          
    |psi|^2 = 0.999
==== e(   5) =    11.88237 eV ==== 
     psi = 0.466*[#   2]+0.466*[#   5]+0.020*[#   3]+0.020*[#   4]+0.020*[#   6]
          +0.008*[#   1]
    |psi|^2 = 0.999
==== e(   6) =    12.85592 eV ==== 
     psi = 0.251*[#   3]+0.251*[#   4]+0.251*[#   6]+0.234*[#   1]+0.005*[#   2]
          +0.005*[#   5]
    |psi|^2 = 0.996
==== e(   7) =    26.80142 eV ==== 
     psi = 0.004*[#   1]
    |psi|^2 = 0.005
==== e(   8) =    29.35135 eV ==== 
     psi = 0.001*[#   1]
    |psi|^2 = 0.002

 k =  -0.4166666667  0.4166666667  0.0833333333
==== e(   1) =     8.23754 eV ==== 
     psi = 0.195*[#   3]+0.195*[#   4]+0.195*[#   6]+0.149*[#   2]+0.149*[#   5]
          +0.113*[#   1]
    |psi|^2 = 0.996
==== e(   2) =     9.64553 eV ==== 
     psi = 0.333*[#   3]+0.333*[#   4]+0.333*[#   6]
    |psi|^2 = 1.000
==== e(   3) =    11.70235 eV ==== 
     psi = 0.297*[#   2]+0.297*[#   5]+0.129*[#   1]+0.080*[#   3]+0.080*[#   4]
          +0.080*[#   6]
    |psi|^2 = 0.964
==== e(   4) =    11.89890 eV ==== 
     psi = 0.498*[#   2]+0.498*[#   5]
    |psi|^2 = 0.999
==== e(   5) =    11.97489 eV ==== 
     psi = 0.216*[#   3]+0.216*[#   4]+0.216*[#   6]+0.175*[#   1]+0.052*[#   2]
          +0.052*[#   5]
    |psi|^2 = 0.925
==== e(   6) =    13.68741 eV ==== 
     psi = 0.346*[#   1]+0.171*[#   3]+0.171*[#   4]+0.171*[#   6]
    |psi|^2 = 0.860
==== e(   7) =    21.52472 eV ==== 
     psi = 0.231*[#   1]+0.004*[#   3]+0.004*[#   4]+0.004*[#   6]
    |psi|^2 = 0.246
==== e(   8) =    30.35328 eV ==== 

    |psi|^2 = 0.000

 k =  -0.4166666667  0.3333333333  0.1666666667
==== e(   1) =     8.52737 eV ==== 
     psi = 0.204*[#   1]+0.192*[#   3]+0.192*[#   4]+0.192*[#   6]+0.108*[#   2]
          +0.108*[#   5]
    |psi|^2 = 0.995
==== e(   2) =     9.69913 eV ==== 
     psi = 0.319*[#   3]+0.319*[#   4]+0.319*[#   6]+0.021*[#   2]+0.021*[#   5]
          
    |psi|^2 = 1.000
==== e(   3) =    10.67121 eV ==== 
     psi = 0.236*[#   1]+0.187*[#   3]+0.187*[#   4]+0.187*[#   6]+0.091*[#   2]
          +0.091*[#   5]
    |psi|^2 = 0.978
==== e(   4) =    11.75128 eV ==== 
     psi = 0.332*[#   2]+0.332*[#   5]+0.112*[#   3]+0.112*[#   4]+0.112*[#   6]
          
    |psi|^2 = 0.999
==== e(   5) =    11.96139 eV ==== 
     psi = 0.442*[#   2]+0.442*[#   5]+0.031*[#   3]+0.031*[#   4]+0.031*[#   6]
          +0.019*[#   1]
    |psi|^2 = 0.997
==== e(   6) =    14.01444 eV ==== 
     psi = 0.465*[#   1]+0.157*[#   3]+0.157*[#   4]+0.157*[#   6]+0.006*[#   2]
          +0.006*[#   5]
    |psi|^2 = 0.947
==== e(   7) =    23.28341 eV ==== 
     psi = 0.067*[#   1]+0.001*[#   3]+0.001*[#   4]+0.001*[#   6]
    |psi|^2 = 0.071
==== e(   8) =    28.28772 eV ==== 
     psi = 0.004*[#   1]
    |psi|^2 = 0.004

 k =  -0.4166666667  0.2500000000  0.2500000000
==== e(   1) =     8.80244 eV ==== 
     psi = 0.302*[#   1]+0.194*[#   3]+0.194*[#   4]+0.194*[#   6]+0.055*[#   2]
          +0.055*[#   5]
    |psi|^2 = 0.994
==== e(   2) =     9.72242 eV ==== 
     psi = 0.237*[#   3]+0.237*[#   4]+0.237*[#   6]+0.145*[#   2]+0.145*[#   5]
          
    |psi|^2 = 0.999
==== e(   3) =    10.09934 eV ==== 
     psi = 0.282*[#   3]+0.282*[#   4]+0.282*[#   6]+0.140*[#   1]+0.004*[#   2]
          +0.004*[#   5]
    |psi|^2 = 0.995
==== e(   4) =    11.69943 eV ==== 
     psi = 0.355*[#   2]+0.355*[#   5]+0.097*[#   3]+0.097*[#   4]+0.097*[#   6]
          
    |psi|^2 = 0.999
==== e(   5) =    11.97941 eV ==== 
     psi = 0.432*[#   2]+0.432*[#   5]+0.039*[#   3]+0.039*[#   4]+0.039*[#   6]
          +0.017*[#   1]
    |psi|^2 = 0.998
==== e(   6) =    14.13474 eV ==== 
     psi = 0.504*[#   1]+0.150*[#   3]+0.150*[#   4]+0.150*[#   6]+0.008*[#   2]
          +0.008*[#   5]
    |psi|^2 = 0.971
==== e(   7) =    25.24481 eV ==== 

    |psi|^2 = 0.000
==== e(   8) =    26.00028 eV ==== 
     psi = 0.033*[#   1]
    |psi|^2 = 0.035

 k =   0.5000000000 -0.5000000000  0.0833333333
==== e(   1) =     8.24169 eV ==== 
     psi = 0.205*[#   3]+0.205*[#   4]+0.205*[#   6]+0.169*[#   2]+0.169*[#   5]
          +0.046*[#   1]
    |psi|^2 = 1.000
==== e(   2) =     9.58453 eV ==== 
     psi = 0.333*[#   3]+0.333*[#   4]+0.333*[#   6]
    |psi|^2 = 1.000
==== e(   3) =    11.81887 eV ==== 
     psi = 0.328*[#   2]+0.328*[#   5]+0.113*[#   3]+0.113*[#   4]+0.113*[#   6]
          +0.004*[#   1]
    |psi|^2 = 0.999
==== e(   4) =    11.91609 eV ==== 
     psi = 0.499*[#   2]+0.499*[#   5]
    |psi|^2 = 0.999
==== e(   5) =    12.40517 eV ==== 
     psi = 0.258*[#   3]+0.258*[#   4]+0.258*[#   6]
    |psi|^2 = 0.773
==== e(   6) =    14.43700 eV ==== 
     psi = 0.075*[#   3]+0.075*[#   4]+0.075*[#   6]
    |psi|^2 = 0.226
==== e(   7) =    19.96841 eV ==== 
     psi = 0.937*[#   1]+0.015*[#   3]+0.015*[#   4]+0.015*[#   6]+0.003*[#   2]
          +0.003*[#   5]
    |psi|^2 = 0.987
==== e(   8) =    30.05794 eV ==== 

    |psi|^2 = 0.000

 k =   0.5000000000 -0.5833333333  0.1666666667
==== e(   1) =     8.54976 eV ==== 
     psi = 0.216*[#   3]+0.216*[#   4]+0.216*[#   6]+0.149*[#   2]+0.149*[#   5]
          +0.054*[#   1]
    |psi|^2 = 0.999
==== e(   2) =     9.60072 eV ==== 
     psi = 0.329*[#   3]+0.329*[#   4]+0.329*[#   6]+0.007*[#   2]+0.007*[#   5]
          
    |psi|^2 = 1.000
==== e(   3) =    11.26611 eV ==== 
     psi = 0.186*[#   2]+0.186*[#   5]+0.169*[#   3]+0.169*[#   4]+0.169*[#   6]
          +0.044*[#   1]
    |psi|^2 = 0.921
==== e(   4) =    11.82489 eV ==== 
     psi = 0.335*[#   2]+0.335*[#   5]+0.109*[#   3]+0.109*[#   4]+0.109*[#   6]
          +0.002*[#   1]
    |psi|^2 = 0.999
==== e(   5) =    12.09303 eV ==== 
     psi = 0.318*[#   2]+0.318*[#   5]+0.109*[#   3]+0.109*[#   4]+0.109*[#   6]
          +0.013*[#   1]
    |psi|^2 = 0.977
==== e(   6) =    15.39434 eV ==== 
     psi = 0.266*[#   1]+0.059*[#   3]+0.059*[#   4]+0.059*[#   6]+0.003*[#   2]
          +0.003*[#   5]
    |psi|^2 = 0.450
==== e(   7) =    20.55826 eV ==== 
     psi = 0.596*[#   1]+0.009*[#   3]+0.009*[#   4]+0.009*[#   6]+0.001*[#   2]
          +0.001*[#   5]
    |psi|^2 = 0.626
==== e(   8) =    27.72359 eV ==== 
     psi = 0.012*[#   1]
    |psi|^2 = 0.012

 k =   0.5000000000 -0.6666666667  0.2500000000
==== e(   1) =     9.00394 eV ==== 
     psi = 0.252*[#   3]+0.252*[#   4]+0.252*[#   6]+0.087*[#   2]+0.087*[#   5]
          +0.068*[#   1]
    |psi|^2 = 0.996
==== e(   2) =     9.64582 eV ==== 
     psi = 0.272*[#   3]+0.272*[#   4]+0.272*[#   6]+0.091*[#   2]+0.091*[#   5]
          
    |psi|^2 = 0.999
==== e(   3) =    10.42763 eV ==== 
     psi = 0.224*[#   3]+0.224*[#   4]+0.224*[#   6]+0.110*[#   2]+0.110*[#   5]
          +0.082*[#   1]
    |psi|^2 = 0.975
==== e(   4) =    11.80924 eV ==== 
     psi = 0.337*[#   2]+0.337*[#   5]+0.108*[#   3]+0.108*[#   4]+0.108*[#   6]
          
    |psi|^2 = 0.999
==== e(   5) =    12.05473 eV ==== 
     psi = 0.369*[#   2]+0.369*[#   5]+0.081*[#   3]+0.081*[#   4]+0.081*[#   6]
          +0.014*[#   1]
    |psi|^2 = 0.996
==== e(   6) =    15.85920 eV ==== 
     psi = 0.580*[#   1]+0.059*[#   3]+0.059*[#   4]+0.059*[#   6]+0.005*[#   2]
          +0.005*[#   5]
    |psi|^2 = 0.767
==== e(   7) =    22.20686 eV ==== 
     psi = 0.163*[#   1]+0.002*[#   3]+0.002*[#   4]+0.002*[#   6]
    |psi|^2 = 0.171
==== e(   8) =    24.87110 eV ==== 
     psi = 0.080*[#   1]
    |psi|^2 = 0.082

 k =   0.4166666667 -0.5833333333  0.2500000000
==== e(   1) =     8.98115 eV ==== 
     psi = 0.252*[#   3]+0.252*[#   4]+0.252*[#   6]+0.107*[#   2]+0.107*[#   5]
          +0.029*[#   1]
    |psi|^2 = 0.999
==== e(   2) =     9.63342 eV ==== 
     psi = 0.298*[#   3]+0.298*[#   4]+0.298*[#   6]+0.052*[#   2]+0.052*[#   5]
          
    |psi|^2 = 0.999
==== e(   3) =    10.60894 eV ==== 
     psi = 0.198*[#   3]+0.198*[#   4]+0.198*[#   6]+0.180*[#   2]+0.180*[#   5]
          
    |psi|^2 = 0.954
==== e(   4) =    11.86461 eV ==== 
     psi = 0.339*[#   2]+0.339*[#   5]+0.106*[#   3]+0.106*[#   4]+0.106*[#   6]
          +0.002*[#   1]
    |psi|^2 = 0.999
==== e(   5) =    12.09816 eV ==== 
     psi = 0.318*[#   2]+0.318*[#   5]+0.119*[#   3]+0.119*[#   4]+0.119*[#   6]
          
    |psi|^2 = 0.991
==== e(   6) =    17.26717 eV ==== 
     psi = 0.017*[#   3]+0.017*[#   4]+0.017*[#   6]+0.002*[#   2]+0.002*[#   5]
          
    |psi|^2 = 0.054
==== e(   7) =    20.24929 eV ==== 
     psi = 0.816*[#   1]+0.010*[#   3]+0.010*[#   4]+0.010*[#   6]+0.001*[#   2]
          +0.001*[#   5]
    |psi|^2 = 0.847
==== e(   8) =    24.56811 eV ==== 
     psi = 0.134*[#   1]
    |psi|^2 = 0.135

 k =   0.4166666667 -0.6666666667  0.3333333333
==== e(   1) =     9.23865 eV ==== 
     psi = 0.318*[#   3]+0.318*[#   4]+0.318*[#   6]+0.018*[#   1]+0.014*[#   2]
          +0.014*[#   5]
    |psi|^2 = 0.999
==== e(   2) =     9.76407 eV ==== 
     psi = 0.217*[#   3]+0.217*[#   4]+0.217*[#   6]+0.172*[#   2]+0.172*[#   5]
          
    |psi|^2 = 0.994
==== e(   3) =    10.15870 eV ==== 
     psi = 0.220*[#   3]+0.220*[#   4]+0.220*[#   6]+0.155*[#   2]+0.155*[#   5]
          +0.010*[#   1]
    |psi|^2 = 0.980
==== e(   4) =    11.91957 eV ==== 
     psi = 0.327*[#   2]+0.327*[#   5]+0.115*[#   3]+0.115*[#   4]+0.115*[#   6]
          
    |psi|^2 = 0.999
==== e(   5) =    12.04486 eV ==== 
     psi = 0.329*[#   2]+0.329*[#   5]+0.112*[#   3]+0.112*[#   4]+0.112*[#   6]
          +0.002*[#   1]
    |psi|^2 = 0.996
==== e(   6) =    18.14823 eV ==== 
     psi = 0.262*[#   1]+0.014*[#   3]+0.014*[#   4]+0.014*[#   6]+0.002*[#   2]
          +0.002*[#   5]
    |psi|^2 = 0.306
==== e(   7) =    20.93122 eV ==== 
     psi = 0.002*[#   3]+0.002*[#   4]+0.002*[#   6]
    |psi|^2 = 0.007
==== e(   8) =    22.44557 eV ==== 
     psi = 0.688*[#   1]+0.003*[#   3]+0.003*[#   4]+0.003*[#   6]
    |psi|^2 = 0.697

 k =   0.0000000000  0.0000000000  0.2500000000
==== e(   1) =     5.95512 eV ==== 
     psi = 0.976*[#   1]+0.011*[#   2]+0.011*[#   5]
    |psi|^2 = 0.999
==== e(   2) =    10.64014 eV ==== 
     psi = 0.333*[#   3]+0.333*[#   4]+0.333*[#   6]
    |psi|^2 = 1.000
==== e(   3) =    10.64014 eV ==== 
     psi = 0.333*[#   3]+0.333*[#   4]+0.333*[#   6]
    |psi|^2 = 1.000
==== e(   4) =    10.93356 eV ==== 
     psi = 0.333*[#   3]+0.333*[#   4]+0.333*[#   6]
    |psi|^2 = 0.999
==== e(   5) =    11.22216 eV ==== 
     psi = 0.500*[#   2]+0.500*[#   5]
    |psi|^2 = 0.999
==== e(   6) =    11.94432 eV ==== 
     psi = 0.488*[#   2]+0.488*[#   5]+0.023*[#   1]
    |psi|^2 = 0.999
==== e(   7) =    33.30623 eV ==== 

    |psi|^2 = 0.000
==== e(   8) =    35.17199 eV ==== 

    |psi|^2 = 0.000

 k =   0.0000000000 -0.0833333333  0.3333333333
==== e(   1) =     6.89858 eV ==== 
     psi = 0.896*[#   1]+0.041*[#   2]+0.041*[#   5]+0.007*[#   3]+0.007*[#   4]
          +0.007*[#   6]
    |psi|^2 = 0.998
==== e(   2) =    10.51355 eV ==== 
     psi = 0.333*[#   3]+0.333*[#   4]+0.333*[#   6]
    |psi|^2 = 1.000
==== e(   3) =    10.53989 eV ==== 
     psi = 0.209*[#   3]+0.209*[#   4]+0.209*[#   6]+0.177*[#   2]+0.177*[#   5]
          +0.017*[#   1]
    |psi|^2 = 1.000
==== e(   4) =    11.07831 eV ==== 
     psi = 0.322*[#   2]+0.322*[#   5]+0.117*[#   3]+0.117*[#   4]+0.117*[#   6]
          +0.004*[#   1]
    |psi|^2 = 0.999
==== e(   5) =    11.38033 eV ==== 
     psi = 0.333*[#   3]+0.333*[#   4]+0.333*[#   6]
    |psi|^2 = 0.999
==== e(   6) =    12.09141 eV ==== 
     psi = 0.459*[#   2]+0.459*[#   5]+0.081*[#   1]
    |psi|^2 = 0.998
==== e(   7) =    30.65026 eV ==== 

    |psi|^2 = 0.000
==== e(   8) =    33.30917 eV ==== 

    |psi|^2 = 0.000

 k =   0.0000000000 -0.1666666667  0.4166666667
==== e(   1) =     7.93015 eV ==== 
     psi = 0.616*[#   1]+0.109*[#   2]+0.109*[#   5]+0.054*[#   3]+0.054*[#   4]
          +0.054*[#   6]
    |psi|^2 = 0.997
==== e(   2) =    10.28482 eV ==== 
     psi = 0.342*[#   2]+0.342*[#   5]+0.088*[#   1]+0.076*[#   3]+0.076*[#   4]
          +0.076*[#   6]
    |psi|^2 = 0.998
==== e(   3) =    10.29051 eV ==== 
     psi = 0.333*[#   3]+0.333*[#   4]+0.333*[#   6]
    |psi|^2 = 1.000
==== e(   4) =    11.34479 eV ==== 
     psi = 0.200*[#   3]+0.200*[#   4]+0.200*[#   6]+0.188*[#   2]+0.188*[#   5]
          +0.025*[#   1]
    |psi|^2 = 0.999
==== e(   5) =    12.03290 eV ==== 
     psi = 0.333*[#   3]+0.333*[#   4]+0.333*[#   6]
    |psi|^2 = 0.999
==== e(   6) =    12.38998 eV ==== 
     psi = 0.361*[#   2]+0.361*[#   5]+0.264*[#   1]+0.003*[#   3]+0.003*[#   4]
          +0.003*[#   6]
    |psi|^2 = 0.996
==== e(   7) =    26.89758 eV ==== 
     psi = 0.005*[#   1]
    |psi|^2 = 0.005
==== e(   8) =    31.95768 eV ==== 

    |psi|^2 = 0.001

 k =   0.0000000000 -0.2500000000  0.5000000000
==== e(   1) =     8.44112 eV ==== 
     psi = 0.204*[#   1]+0.192*[#   2]+0.192*[#   5]+0.136*[#   3]+0.136*[#   4]
          +0.136*[#   6]
    |psi|^2 = 0.996
==== e(   2) =    10.09626 eV ==== 
     psi = 0.333*[#   3]+0.333*[#   4]+0.333*[#   6]
    |psi|^2 = 1.000
==== e(   3) =    10.37851 eV ==== 
     psi = 0.419*[#   2]+0.419*[#   5]+0.129*[#   1]+0.007*[#   3]+0.007*[#   4]
          +0.007*[#   6]
    |psi|^2 = 0.988
==== e(   4) =    11.56122 eV ==== 
     psi = 0.243*[#   2]+0.243*[#   5]+0.170*[#   3]+0.170*[#   4]+0.170*[#   6]
          +0.002*[#   1]
    |psi|^2 = 0.998
==== e(   5) =    12.66296 eV ==== 
     psi = 0.333*[#   3]+0.333*[#   4]+0.333*[#   6]
    |psi|^2 = 0.999
==== e(   6) =    13.36545 eV ==== 
     psi = 0.596*[#   1]+0.145*[#   2]+0.145*[#   5]+0.019*[#   3]+0.019*[#   4]
          +0.019*[#   6]
    |psi|^2 = 0.942
==== e(   7) =    23.32023 eV ==== 
     psi = 0.065*[#   1]+0.001*[#   3]+0.001*[#   4]+0.001*[#   6]
    |psi|^2 = 0.070
==== e(   8) =    30.68874 eV ==== 

    |psi|^2 = 0.000

 k =   0.0000000000 -0.3333333333  0.5833333333
==== e(   1) =     8.47607 eV ==== 
     psi = 0.230*[#   2]+0.230*[#   5]+0.162*[#   3]+0.162*[#   4]+0.162*[#   6]
          +0.053*[#   1]
    |psi|^2 = 0.999
==== e(   2) =     9.98551 eV ==== 
     psi = 0.333*[#   3]+0.333*[#   4]+0.333*[#   6]
    |psi|^2 = 1.000
==== e(   3) =    10.61512 eV ==== 
     psi = 0.465*[#   2]+0.465*[#   5]+0.026*[#   1]
    |psi|^2 = 0.955
==== e(   4) =    11.57301 eV ==== 
     psi = 0.263*[#   2]+0.263*[#   5]+0.156*[#   3]+0.156*[#   4]+0.156*[#   6]
          +0.004*[#   1]
    |psi|^2 = 0.998
==== e(   5) =    13.05872 eV ==== 
     psi = 0.333*[#   3]+0.333*[#   4]+0.333*[#   6]
    |psi|^2 = 0.999
==== e(   6) =    14.92804 eV ==== 
     psi = 0.307*[#   1]+0.039*[#   2]+0.039*[#   5]+0.006*[#   3]+0.006*[#   4]
          +0.006*[#   6]
    |psi|^2 = 0.404
==== e(   7) =    20.55626 eV ==== 
     psi = 0.597*[#   1]+0.009*[#   3]+0.009*[#   4]+0.009*[#   6]+0.002*[#   2]
          +0.002*[#   5]
    |psi|^2 = 0.629
==== e(   8) =    29.95953 eV ==== 

    |psi|^2 = 0.000

 k =  -0.0833333333 -0.0833333333  0.4166666667
==== e(   1) =     7.84368 eV ==== 
     psi = 0.704*[#   1]+0.110*[#   2]+0.110*[#   5]+0.024*[#   3]+0.024*[#   4]
          +0.024*[#   6]
    |psi|^2 = 0.998
==== e(   2) =    10.19563 eV ==== 
     psi = 0.323*[#   2]+0.323*[#   5]+0.118*[#   3]+0.118*[#   4]+0.118*[#   6]
          
    |psi|^2 = 1.000
==== e(   3) =    10.57777 eV ==== 
     psi = 0.318*[#   3]+0.318*[#   4]+0.318*[#   6]+0.032*[#   1]+0.007*[#   2]
          +0.007*[#   5]
    |psi|^2 = 0.999
==== e(   4) =    11.08570 eV ==== 
     psi = 0.215*[#   3]+0.215*[#   4]+0.215*[#   6]+0.177*[#   2]+0.177*[#   5]
          
    |psi|^2 = 1.000
==== e(   5) =    11.83177 eV ==== 
     psi = 0.308*[#   3]+0.308*[#   4]+0.308*[#   6]+0.037*[#   2]+0.037*[#   5]
          
    |psi|^2 = 0.999
==== e(   6) =    12.42997 eV ==== 
     psi = 0.345*[#   2]+0.345*[#   5]+0.260*[#   1]+0.016*[#   3]+0.016*[#   4]
          +0.016*[#   6]
    |psi|^2 = 0.997
==== e(   7) =    28.86869 eV ==== 

    |psi|^2 = 0.000
==== e(   8) =    29.75368 eV ==== 
     psi = 0.002*[#   1]
    |psi|^2 = 0.002

 k =  -0.0833333333 -0.1666666667  0.5000000000
==== e(   1) =     8.59533 eV ==== 
     psi = 0.342*[#   1]+0.202*[#   2]+0.202*[#   5]+0.083*[#   3]+0.083*[#   4]
          +0.083*[#   6]
    |psi|^2 = 0.996
==== e(   2) =     9.87574 eV ==== 
     psi = 0.361*[#   2]+0.361*[#   5]+0.083*[#   3]+0.083*[#   4]+0.083*[#   6]
          +0.027*[#   1]
    |psi|^2 = 0.999
==== e(   3) =    10.47782 eV ==== 
     psi = 0.285*[#   3]+0.285*[#   4]+0.285*[#   6]+0.056*[#   2]+0.056*[#   5]
          +0.032*[#   1]
    |psi|^2 = 0.999
==== e(   4) =    11.36549 eV ==== 
     psi = 0.228*[#   3]+0.228*[#   4]+0.228*[#   6]+0.156*[#   2]+0.156*[#   5]
          +0.002*[#   1]
    |psi|^2 = 0.999
==== e(   5) =    12.28511 eV ==== 
     psi = 0.263*[#   3]+0.263*[#   4]+0.263*[#   6]+0.092*[#   2]+0.092*[#   5]
          +0.025*[#   1]
    |psi|^2 = 0.999
==== e(   6) =    13.39788 eV ==== 
     psi = 0.549*[#   1]+0.132*[#   2]+0.132*[#   5]+0.057*[#   3]+0.057*[#   4]
          +0.057*[#   6]
    |psi|^2 = 0.982
==== e(   7) =    25.44993 eV ==== 
     psi = 0.014*[#   1]
    |psi|^2 = 0.016
==== e(   8) =    28.08553 eV ==== 
     psi = 0.005*[#   1]
    |psi|^2 = 0.006

 k =  -0.0833333333 -0.2500000000  0.5833333333
==== e(   1) =     8.76876 eV ==== 
     psi = 0.262*[#   2]+0.262*[#   5]+0.130*[#   3]+0.130*[#   4]+0.130*[#   6]
          +0.081*[#   1]
    |psi|^2 = 0.997
==== e(   2) =     9.93682 eV ==== 
     psi = 0.331*[#   2]+0.331*[#   5]+0.098*[#   3]+0.098*[#   4]+0.098*[#   6]
          +0.035*[#   1]
    |psi|^2 = 0.990
==== e(   3) =    10.31942 eV ==== 
     psi = 0.236*[#   3]+0.236*[#   4]+0.236*[#   6]+0.135*[#   2]+0.135*[#   5]
          +0.015*[#   1]
    |psi|^2 = 0.994
==== e(   4) =    11.53503 eV ==== 
     psi = 0.204*[#   3]+0.204*[#   4]+0.204*[#   6]+0.193*[#   2]+0.193*[#   5]
          +0.002*[#   1]
    |psi|^2 = 0.999
==== e(   5) =    12.71745 eV ==== 
     psi = 0.301*[#   3]+0.301*[#   4]+0.301*[#   6]+0.037*[#   2]+0.037*[#   5]
          +0.018*[#   1]
    |psi|^2 = 0.995
==== e(   6) =    15.09550 eV ==== 
     psi = 0.632*[#   1]+0.040*[#   2]+0.040*[#   5]+0.027*[#   3]+0.027*[#   4]
          +0.027*[#   6]
    |psi|^2 = 0.793
==== e(   7) =    22.08788 eV ==== 
     psi = 0.196*[#   1]+0.003*[#   3]+0.003*[#   4]+0.003*[#   6]
    |psi|^2 = 0.207
==== e(   8) =    27.18837 eV ==== 
     psi = 0.015*[#   1]
    |psi|^2 = 0.015

 k =  -0.0833333333  0.6666666667 -0.3333333333
==== e(   1) =     8.73623 eV ==== 
     psi = 0.279*[#   2]+0.279*[#   5]+0.136*[#   3]+0.136*[#   4]+0.136*[#   6]
          +0.031*[#   1]
    |psi|^2 = 1.000
==== e(   2) =    10.14371 eV ==== 
     psi = 0.320*[#   3]+0.320*[#   4]+0.320*[#   6]+0.019*[#   2]+0.019*[#   5]
          
    |psi|^2 = 1.000
==== e(   3) =    10.14493 eV ==== 
     psi = 0.466*[#   2]+0.466*[#   5]+0.012*[#   3]+0.012*[#   4]+0.012*[#   6]
          
    |psi|^2 = 0.967
==== e(   4) =    11.56143 eV ==== 
     psi = 0.199*[#   2]+0.199*[#   5]+0.198*[#   3]+0.198*[#   4]+0.198*[#   6]
          +0.009*[#   1]
    |psi|^2 = 0.999
==== e(   5) =    12.91713 eV ==== 
     psi = 0.315*[#   3]+0.315*[#   4]+0.315*[#   6]+0.022*[#   2]+0.022*[#   5]
          
    |psi|^2 = 0.990
==== e(   6) =    16.45870 eV ==== 
     psi = 0.012*[#   2]+0.012*[#   5]+0.006*[#   3]+0.006*[#   4]+0.006*[#   6]
          
    |psi|^2 = 0.042
==== e(   7) =    20.18493 eV ==== 
     psi = 0.919*[#   1]+0.012*[#   3]+0.012*[#   4]+0.012*[#   6]+0.002*[#   2]
          +0.002*[#   5]
    |psi|^2 = 0.959
==== e(   8) =    26.86681 eV ==== 
     psi = 0.028*[#   1]
    |psi|^2 = 0.028

 k =  -0.1666666667 -0.1666666667  0.5833333333
==== e(   1) =     9.09079 eV ==== 
     psi = 0.260*[#   2]+0.260*[#   5]+0.139*[#   1]+0.112*[#   3]+0.112*[#   4]
          +0.112*[#   6]
    |psi|^2 = 0.994
==== e(   2) =     9.50831 eV ==== 
     psi = 0.386*[#   2]+0.386*[#   5]+0.075*[#   3]+0.075*[#   4]+0.075*[#   6]
          
    |psi|^2 = 0.999
==== e(   3) =    10.42362 eV ==== 
     psi = 0.254*[#   3]+0.254*[#   4]+0.254*[#   6]+0.112*[#   2]+0.112*[#   5]
          +0.010*[#   1]
    |psi|^2 = 0.997
==== e(   4) =    11.60028 eV ==== 
     psi = 0.257*[#   3]+0.257*[#   4]+0.257*[#   6]+0.113*[#   2]+0.113*[#   5]
          
    |psi|^2 = 0.999
==== e(   5) =    12.44609 eV ==== 
     psi = 0.262*[#   3]+0.262*[#   4]+0.262*[#   6]+0.089*[#   2]+0.089*[#   5]
          +0.032*[#   1]
    |psi|^2 = 0.998
==== e(   6) =    15.17546 eV ==== 
     psi = 0.713*[#   1]+0.038*[#   2]+0.038*[#   5]+0.037*[#   3]+0.037*[#   4]
          +0.037*[#   6]
    |psi|^2 = 0.901
==== e(   7) =    24.04710 eV ==== 

    |psi|^2 = 0.001
==== e(   8) =    24.74879 eV ==== 
     psi = 0.101*[#   1]
    |psi|^2 = 0.104

 k =  -0.1666666667  0.7500000000 -0.3333333333
==== e(   1) =     9.14025 eV ==== 
     psi = 0.329*[#   2]+0.329*[#   5]+0.105*[#   3]+0.105*[#   4]+0.105*[#   6]
          +0.023*[#   1]
    |psi|^2 = 0.998
==== e(   2) =     9.63288 eV ==== 
     psi = 0.392*[#   2]+0.392*[#   5]+0.064*[#   3]+0.064*[#   4]+0.064*[#   6]
          +0.012*[#   1]
    |psi|^2 = 0.989
==== e(   3) =    10.15032 eV ==== 
     psi = 0.268*[#   3]+0.268*[#   4]+0.268*[#   6]+0.096*[#   2]+0.096*[#   5]
          
    |psi|^2 = 0.997
==== e(   4) =    11.83320 eV ==== 
     psi = 0.254*[#   3]+0.254*[#   4]+0.254*[#   6]+0.116*[#   2]+0.116*[#   5]
          +0.004*[#   1]
    |psi|^2 = 0.998
==== e(   5) =    12.57691 eV ==== 
     psi = 0.290*[#   3]+0.290*[#   4]+0.290*[#   6]+0.058*[#   2]+0.058*[#   5]
          +0.007*[#   1]
    |psi|^2 = 0.993
==== e(   6) =    17.37733 eV ==== 
     psi = 0.368*[#   1]+0.012*[#   3]+0.012*[#   4]+0.012*[#   6]+0.008*[#   2]
          +0.008*[#   5]
    |psi|^2 = 0.418
==== e(   7) =    21.18378 eV ==== 
     psi = 0.373*[#   1]+0.004*[#   3]+0.004*[#   4]+0.004*[#   6]
    |psi|^2 = 0.386
==== e(   8) =    23.87695 eV ==== 
     psi = 0.201*[#   1]+0.001*[#   3]+0.001*[#   4]+0.001*[#   6]
    |psi|^2 = 0.205

 k =  -0.2500000000  0.2500000000  0.2500000000
==== e(   1) =     7.93893 eV ==== 
     psi = 0.758*[#   1]+0.080*[#   3]+0.080*[#   4]+0.080*[#   6]
    |psi|^2 = 0.997
==== e(   2) =     9.89823 eV ==== 
     psi = 0.297*[#   3]+0.297*[#   4]+0.297*[#   6]+0.054*[#   2]+0.054*[#   5]
          
    |psi|^2 = 1.000
==== e(   3) =     9.89823 eV ==== 
     psi = 0.297*[#   3]+0.297*[#   4]+0.297*[#   6]+0.054*[#   2]+0.054*[#   5]
          
    |psi|^2 = 1.000
==== e(   4) =    11.75769 eV ==== 
     psi = 0.446*[#   2]+0.446*[#   5]+0.036*[#   3]+0.036*[#   4]+0.036*[#   6]
          
    |psi|^2 = 0.999
==== e(   5) =    11.75769 eV ==== 
     psi = 0.446*[#   2]+0.446*[#   5]+0.036*[#   3]+0.036*[#   4]+0.036*[#   6]
          
    |psi|^2 = 0.999
==== e(   6) =    12.88055 eV ==== 
     psi = 0.253*[#   3]+0.253*[#   4]+0.253*[#   6]+0.237*[#   1]
    |psi|^2 = 0.997
==== e(   7) =    28.68660 eV ==== 

    |psi|^2 = 0.000
==== e(   8) =    28.68660 eV ==== 

    |psi|^2 = 0.000

 k =  -0.2500000000  0.7500000000 -0.2500000000
==== e(   1) =     9.45587 eV ==== 
     psi = 0.421*[#   2]+0.421*[#   5]+0.050*[#   3]+0.050*[#   4]+0.050*[#   6]
          
    |psi|^2 = 0.994
==== e(   2) =     9.45587 eV ==== 
     psi = 0.421*[#   2]+0.421*[#   5]+0.050*[#   3]+0.050*[#   4]+0.050*[#   6]
          
    |psi|^2 = 0.994
==== e(   3) =     9.92504 eV ==== 
     psi = 0.328*[#   3]+0.328*[#   4]+0.328*[#   6]+0.015*[#   1]
    |psi|^2 = 1.000
==== e(   4) =    12.26193 eV ==== 
     psi = 0.280*[#   3]+0.280*[#   4]+0.280*[#   6]+0.077*[#   2]+0.077*[#   5]
          
    |psi|^2 = 0.995
==== e(   5) =    12.26193 eV ==== 
     psi = 0.280*[#   3]+0.280*[#   4]+0.280*[#   6]+0.077*[#   2]+0.077*[#   5]
          
    |psi|^2 = 0.995
==== e(   6) =    19.84660 eV ==== 
     psi = 0.003*[#   3]+0.003*[#   4]+0.003*[#   6]
    |psi|^2 = 0.010
==== e(   7) =    19.84660 eV ==== 
     psi = 0.003*[#   3]+0.003*[#   4]+0.003*[#   6]
    |psi|^2 = 0.010
==== e(   8) =    22.07947 eV ==== 
     psi = 0.968*[#   1]+0.005*[#   3]+0.005*[#   4]+0.005*[#   6]
    |psi|^2 = 0.982

 k =  -0.3333333333  0.3333333333  0.2500000000
==== e(   1) =     8.84089 eV ==== 
     psi = 0.383*[#   1]+0.181*[#   3]+0.181*[#   4]+0.181*[#   6]+0.034*[#   2]
          +0.034*[#   5]
    |psi|^2 = 0.994
==== e(   2) =     9.69566 eV ==== 
     psi = 0.314*[#   3]+0.314*[#   4]+0.314*[#   6]+0.029*[#   2]+0.029*[#   5]
          
    |psi|^2 = 1.000
==== e(   3) =     9.92661 eV ==== 
     psi = 0.258*[#   3]+0.258*[#   4]+0.258*[#   6]+0.111*[#   1]+0.055*[#   2]
          +0.055*[#   5]
    |psi|^2 = 0.996
==== e(   4) =    11.79610 eV ==== 
     psi = 0.410*[#   2]+0.410*[#   5]+0.059*[#   3]+0.059*[#   4]+0.059*[#   6]
          +0.001*[#   1]
    |psi|^2 = 0.999
==== e(   5) =    11.86207 eV ==== 
     psi = 0.471*[#   2]+0.471*[#   5]+0.019*[#   3]+0.019*[#   4]+0.019*[#   6]
          
    |psi|^2 = 0.999
==== e(   6) =    14.07756 eV ==== 
     psi = 0.478*[#   1]+0.167*[#   3]+0.167*[#   4]+0.167*[#   6]
    |psi|^2 = 0.979
==== e(   7) =    25.35831 eV ==== 
     psi = 0.014*[#   1]
    |psi|^2 = 0.014
==== e(   8) =    27.54375 eV ==== 

    |psi|^2 = 0.000

 k =   0.5833333333 -0.5833333333  0.2500000000
==== e(   1) =     8.94218 eV ==== 
     psi = 0.239*[#   3]+0.239*[#   4]+0.239*[#   6]+0.101*[#   2]+0.101*[#   5]
          +0.078*[#   1]
    |psi|^2 = 0.997
==== e(   2) =     9.57388 eV ==== 
     psi = 0.328*[#   3]+0.328*[#   4]+0.328*[#   6]+0.008*[#   2]+0.008*[#   5]
          
    |psi|^2 = 1.000
==== e(   3) =    10.60535 eV ==== 
     psi = 0.277*[#   3]+0.277*[#   4]+0.277*[#   6]+0.114*[#   1]+0.010*[#   2]
          +0.010*[#   5]
    |psi|^2 = 0.966
==== e(   4) =    11.86037 eV ==== 
     psi = 0.387*[#   2]+0.387*[#   5]+0.074*[#   3]+0.074*[#   4]+0.074*[#   6]
          +0.002*[#   1]
    |psi|^2 = 0.999
==== e(   5) =    11.91475 eV ==== 
     psi = 0.492*[#   2]+0.492*[#   5]+0.005*[#   3]+0.005*[#   4]+0.005*[#   6]
          
    |psi|^2 = 0.999
==== e(   6) =    15.64504 eV ==== 
     psi = 0.566*[#   1]+0.073*[#   3]+0.073*[#   4]+0.073*[#   6]
    |psi|^2 = 0.785
==== e(   7) =    22.08290 eV ==== 
     psi = 0.200*[#   1]+0.003*[#   3]+0.003*[#   4]+0.003*[#   6]
    |psi|^2 = 0.210
==== e(   8) =    26.82627 eV ==== 

    |psi|^2 = 0.000

 k =   0.5833333333 -0.6666666667  0.3333333333
==== e(   1) =     9.32881 eV ==== 
     psi = 0.284*[#   3]+0.284*[#   4]+0.284*[#   6]+0.085*[#   1]+0.030*[#   2]
          +0.030*[#   5]
    |psi|^2 = 0.996
==== e(   2) =     9.63260 eV ==== 
     psi = 0.282*[#   3]+0.282*[#   4]+0.282*[#   6]+0.077*[#   2]+0.077*[#   5]
          
    |psi|^2 = 0.999
==== e(   3) =     9.97528 eV ==== 
     psi = 0.285*[#   3]+0.285*[#   4]+0.285*[#   6]+0.131*[#   1]
    |psi|^2 = 0.988
==== e(   4) =    11.86076 eV ==== 
     psi = 0.423*[#   2]+0.423*[#   5]+0.051*[#   3]+0.051*[#   4]+0.051*[#   6]
          
    |psi|^2 = 0.999
==== e(   5) =    11.92327 eV ==== 
     psi = 0.469*[#   2]+0.469*[#   5]+0.020*[#   3]+0.020*[#   4]+0.020*[#   6]
          +0.002*[#   1]
    |psi|^2 = 0.999
==== e(   6) =    15.72341 eV ==== 
     psi = 0.653*[#   1]+0.076*[#   3]+0.076*[#   4]+0.076*[#   6]
    |psi|^2 = 0.884
==== e(   7) =    24.03078 eV ==== 

    |psi|^2 = 0.001
==== e(   8) =    24.73835 eV ==== 
     psi = 0.091*[#   1]
    |psi|^2 = 0.094

 k =   0.5000000000 -0.5000000000  0.2500000000
==== e(   1) =     8.89432 eV ==== 
     psi = 0.244*[#   3]+0.244*[#   4]+0.244*[#   6]+0.117*[#   2]+0.117*[#   5]
          +0.034*[#   1]
    |psi|^2 = 0.999
==== e(   2) =     9.53361 eV ==== 
     psi = 0.333*[#   3]+0.333*[#   4]+0.333*[#   6]
    |psi|^2 = 1.000
==== e(   3) =    10.95560 eV ==== 
     psi = 0.310*[#   3]+0.310*[#   4]+0.310*[#   6]
    |psi|^2 = 0.929
==== e(   4) =    11.88926 eV ==== 
     psi = 0.381*[#   2]+0.381*[#   5]+0.078*[#   3]+0.078*[#   4]+0.078*[#   6]
          +0.002*[#   1]
    |psi|^2 = 0.999
==== e(   5) =    11.93041 eV ==== 
     psi = 0.499*[#   2]+0.499*[#   5]
    |psi|^2 = 0.999
==== e(   6) =    16.88809 eV ==== 
     psi = 0.024*[#   3]+0.024*[#   4]+0.024*[#   6]
    |psi|^2 = 0.071
==== e(   7) =    20.22363 eV ==== 
     psi = 0.891*[#   1]+0.011*[#   3]+0.011*[#   4]+0.011*[#   6]+0.001*[#   2]
          +0.001*[#   5]
    |psi|^2 = 0.926
==== e(   8) =    26.58120 eV ==== 

    |psi|^2 = 0.000

 k =   0.5000000000 -0.5833333333  0.3333333333
==== e(   1) =     9.29101 eV ==== 
     psi = 0.297*[#   3]+0.297*[#   4]+0.297*[#   6]+0.043*[#   2]+0.043*[#   5]
          +0.022*[#   1]
    |psi|^2 = 0.998
==== e(   2) =     9.61190 eV ==== 
     psi = 0.305*[#   3]+0.305*[#   4]+0.305*[#   6]+0.041*[#   2]+0.041*[#   5]
          +0.002*[#   1]
    |psi|^2 = 0.998
==== e(   3) =    10.32687 eV ==== 
     psi = 0.301*[#   3]+0.301*[#   4]+0.301*[#   6]+0.025*[#   2]+0.025*[#   5]
          +0.020*[#   1]
    |psi|^2 = 0.973
==== e(   4) =    11.91211 eV ==== 
     psi = 0.420*[#   2]+0.420*[#   5]+0.053*[#   3]+0.053*[#   4]+0.053*[#   6]
          
    |psi|^2 = 0.999
==== e(   5) =    11.95324 eV ==== 
     psi = 0.469*[#   2]+0.469*[#   5]+0.020*[#   3]+0.020*[#   4]+0.020*[#   6]
          
    |psi|^2 = 0.998
==== e(   6) =    17.74137 eV ==== 
     psi = 0.341*[#   1]+0.020*[#   3]+0.020*[#   4]+0.020*[#   6]
    |psi|^2 = 0.403
==== e(   7) =    21.26640 eV ==== 
     psi = 0.360*[#   1]+0.004*[#   3]+0.004*[#   4]+0.004*[#   6]
    |psi|^2 = 0.371
==== e(   8) =    23.93694 eV ==== 
     psi = 0.176*[#   1]
    |psi|^2 = 0.178

 k =   0.4166666667 -0.5833333333  0.4166666667
==== e(   1) =     9.36085 eV ==== 
     psi = 0.331*[#   3]+0.331*[#   4]+0.331*[#   6]+0.008*[#   1]
    |psi|^2 = 1.000
==== e(   2) =     9.95132 eV ==== 
     psi = 0.292*[#   3]+0.292*[#   4]+0.292*[#   6]+0.056*[#   2]+0.056*[#   5]
          
    |psi|^2 = 0.989
==== e(   3) =     9.95132 eV ==== 
     psi = 0.292*[#   3]+0.292*[#   4]+0.292*[#   6]+0.056*[#   2]+0.056*[#   5]
          
    |psi|^2 = 0.989
==== e(   4) =    11.95068 eV ==== 
     psi = 0.443*[#   2]+0.443*[#   5]+0.038*[#   3]+0.038*[#   4]+0.038*[#   6]
          
    |psi|^2 = 0.999
==== e(   5) =    11.95068 eV ==== 
     psi = 0.443*[#   2]+0.443*[#   5]+0.038*[#   3]+0.038*[#   4]+0.038*[#   6]
          
    |psi|^2 = 0.999
==== e(   6) =    20.06909 eV ==== 
     psi = 0.004*[#   3]+0.004*[#   4]+0.004*[#   6]
    |psi|^2 = 0.011
==== e(   7) =    20.06909 eV ==== 
     psi = 0.004*[#   3]+0.004*[#   4]+0.004*[#   6]
    |psi|^2 = 0.011
==== e(   8) =    22.13195 eV ==== 
     psi = 0.895*[#   1]+0.003*[#   3]+0.003*[#   4]+0.003*[#   6]
    |psi|^2 = 0.903

 k =   0.0000000000  0.0000000000  0.4166666667
==== e(   1) =     7.69636 eV ==== 
     psi = 0.761*[#   1]+0.119*[#   2]+0.119*[#   5]
    |psi|^2 = 0.999
==== e(   2) =    10.42247 eV ==== 
     psi = 0.500*[#   2]+0.500*[#   5]
    |psi|^2 = 0.999
==== e(   3) =    10.83542 eV ==== 
     psi = 0.333*[#   3]+0.333*[#   4]+0.333*[#   6]
    |psi|^2 = 1.000
==== e(   4) =    10.83542 eV ==== 
     psi = 0.333*[#   3]+0.333*[#   4]+0.333*[#   6]
    |psi|^2 = 1.000
==== e(   5) =    11.43488 eV ==== 
     psi = 0.333*[#   3]+0.333*[#   4]+0.333*[#   6]
    |psi|^2 = 0.999
==== e(   6) =    12.41599 eV ==== 
     psi = 0.381*[#   2]+0.381*[#   5]+0.237*[#   1]
    |psi|^2 = 0.998
==== e(   7) =    30.90830 eV ==== 

    |psi|^2 = 0.000
==== e(   8) =    31.49810 eV ==== 

    |psi|^2 = 0.000

 k =   0.0000000000 -0.0833333333  0.5000000000
==== e(   1) =     8.47915 eV ==== 
     psi = 0.461*[#   1]+0.243*[#   2]+0.243*[#   5]+0.017*[#   3]+0.017*[#   4]
          +0.017*[#   6]
    |psi|^2 = 0.998
==== e(   2) =     9.92851 eV ==== 
     psi = 0.464*[#   2]+0.464*[#   5]+0.021*[#   3]+0.021*[#   4]+0.021*[#   6]
          +0.006*[#   1]
    |psi|^2 = 0.999
==== e(   3) =    10.81551 eV ==== 
     psi = 0.333*[#   3]+0.333*[#   4]+0.333*[#   6]
    |psi|^2 = 1.000
==== e(   4) =    11.14689 eV ==== 
     psi = 0.291*[#   3]+0.291*[#   4]+0.291*[#   6]+0.061*[#   2]+0.061*[#   5]
          +0.004*[#   1]
    |psi|^2 = 0.999
==== e(   5) =    11.95377 eV ==== 
     psi = 0.333*[#   3]+0.333*[#   4]+0.333*[#   6]
    |psi|^2 = 0.999
==== e(   6) =    13.06783 eV ==== 
     psi = 0.522*[#   1]+0.231*[#   2]+0.231*[#   5]+0.003*[#   3]+0.003*[#   4]
          +0.003*[#   6]
    |psi|^2 = 0.995
==== e(   7) =    27.63771 eV ==== 
     psi = 0.003*[#   1]
    |psi|^2 = 0.003
==== e(   8) =    29.75053 eV ==== 

    |psi|^2 = 0.000

 k =   0.0000000000 -0.1666666667  0.5833333333
==== e(   1) =     8.83482 eV ==== 
     psi = 0.328*[#   2]+0.328*[#   5]+0.145*[#   1]+0.065*[#   3]+0.065*[#   4]
          +0.065*[#   6]
    |psi|^2 = 0.997
==== e(   2) =     9.66039 eV ==== 
     psi = 0.469*[#   2]+0.469*[#   5]+0.038*[#   1]+0.007*[#   3]+0.007*[#   4]
          +0.007*[#   6]
    |psi|^2 = 0.997
==== e(   3) =    10.68760 eV ==== 
     psi = 0.333*[#   3]+0.333*[#   4]+0.333*[#   6]
    |psi|^2 = 1.000
==== e(   4) =    11.38964 eV ==== 
     psi = 0.250*[#   3]+0.250*[#   4]+0.250*[#   6]+0.125*[#   2]+0.125*[#   5]
          +0.001*[#   1]
    |psi|^2 = 0.999
==== e(   5) =    12.58538 eV ==== 
     psi = 0.333*[#   3]+0.333*[#   4]+0.333*[#   6]
    |psi|^2 = 0.999
==== e(   6) =    14.50927 eV ==== 
     psi = 0.755*[#   1]+0.078*[#   2]+0.078*[#   5]+0.010*[#   3]+0.010*[#   4]
          +0.010*[#   6]
    |psi|^2 = 0.941
==== e(   7) =    23.99693 eV ==== 
     psi = 0.052*[#   1]
    |psi|^2 = 0.056
==== e(   8) =    28.39792 eV ==== 

    |psi|^2 = 0.000

 k =   0.0000000000 -0.2500000000  0.6666666667
==== e(   1) =     8.79572 eV ==== 
     psi = 0.355*[#   2]+0.355*[#   5]+0.086*[#   3]+0.086*[#   4]+0.086*[#   6]
          +0.032*[#   1]
    |psi|^2 = 0.999
==== e(   2) =     9.69797 eV ==== 
     psi = 0.487*[#   2]+0.487*[#   5]+0.011*[#   1]
    |psi|^2 = 0.984
==== e(   3) =    10.60468 eV ==== 
     psi = 0.333*[#   3]+0.333*[#   4]+0.333*[#   6]
    |psi|^2 = 1.000
==== e(   4) =    11.44699 eV ==== 
     psi = 0.236*[#   3]+0.236*[#   4]+0.236*[#   6]+0.140*[#   2]+0.140*[#   5]
          +0.012*[#   1]
    |psi|^2 = 0.999
==== e(   5) =    12.99826 eV ==== 
     psi = 0.333*[#   3]+0.333*[#   4]+0.333*[#   6]
    |psi|^2 = 0.999
==== e(   6) =    16.50987 eV ==== 
     psi = 0.379*[#   1]+0.017*[#   2]+0.017*[#   5]+0.005*[#   3]+0.005*[#   4]
          +0.005*[#   6]
    |psi|^2 = 0.426
==== e(   7) =    20.96340 eV ==== 
     psi = 0.542*[#   1]+0.007*[#   3]+0.007*[#   4]+0.007*[#   6]+0.001*[#   2]
          +0.001*[#   5]
    |psi|^2 = 0.565
==== e(   8) =    27.63615 eV ==== 

    |psi|^2 = 0.000

 k =  -0.0833333333 -0.0833333333  0.5833333333
==== e(   1) =     8.90068 eV ==== 
     psi = 0.361*[#   2]+0.361*[#   5]+0.201*[#   1]+0.025*[#   3]+0.025*[#   4]
          +0.025*[#   6]
    |psi|^2 = 0.997
==== e(   2) =     9.49549 eV ==== 
     psi = 0.466*[#   2]+0.466*[#   5]+0.023*[#   3]+0.023*[#   4]+0.023*[#   6]
          
    |psi|^2 = 1.000
==== e(   3) =    10.91268 eV ==== 
     psi = 0.311*[#   3]+0.311*[#   4]+0.311*[#   6]+0.033*[#   2]+0.033*[#   5]
          
    |psi|^2 = 0.999
==== e(   4) =    11.41113 eV ==== 
     psi = 0.310*[#   3]+0.310*[#   4]+0.310*[#   6]+0.034*[#   2]+0.034*[#   5]
          
    |psi|^2 = 0.999
==== e(   5) =    12.32782 eV ==== 
     psi = 0.318*[#   3]+0.318*[#   4]+0.318*[#   6]+0.019*[#   2]+0.019*[#   5]
          +0.008*[#   1]
    |psi|^2 = 0.999
==== e(   6) =    14.36881 eV ==== 
     psi = 0.764*[#   1]+0.087*[#   2]+0.087*[#   5]+0.012*[#   3]+0.012*[#   4]
          +0.012*[#   6]
    |psi|^2 = 0.975
==== e(   7) =    26.10614 eV ==== 

    |psi|^2 = 0.000
==== e(   8) =    26.56417 eV ==== 
     psi = 0.021*[#   1]
    |psi|^2 = 0.022

 k =  -0.0833333333 -0.1666666667  0.6666666667
==== e(   1) =     8.97828 eV ==== 
     psi = 0.415*[#   2]+0.415*[#   5]+0.042*[#   3]+0.042*[#   4]+0.042*[#   6]
          +0.041*[#   1]
    |psi|^2 = 0.998
==== e(   2) =     9.30263 eV ==== 
     psi = 0.471*[#   2]+0.471*[#   5]+0.017*[#   1]+0.012*[#   3]+0.012*[#   4]
          +0.012*[#   6]
    |psi|^2 = 0.996
==== e(   3) =    10.79450 eV ==== 
     psi = 0.316*[#   3]+0.316*[#   4]+0.316*[#   6]+0.025*[#   2]+0.025*[#   5]
          +0.002*[#   1]
    |psi|^2 = 0.999
==== e(   4) =    11.69425 eV ==== 
     psi = 0.296*[#   3]+0.296*[#   4]+0.296*[#   6]+0.054*[#   2]+0.054*[#   5]
          +0.004*[#   1]
    |psi|^2 = 0.999
==== e(   5) =    12.71607 eV ==== 
     psi = 0.321*[#   3]+0.321*[#   4]+0.321*[#   6]+0.013*[#   2]+0.013*[#   5]
          +0.008*[#   1]
    |psi|^2 = 0.998
==== e(   6) =    16.40986 eV ==== 
     psi = 0.727*[#   1]+0.021*[#   2]+0.021*[#   5]+0.010*[#   3]+0.010*[#   4]
          +0.010*[#   6]
    |psi|^2 = 0.798
==== e(   7) =    22.84588 eV ==== 
     psi = 0.141*[#   1]+0.002*[#   3]+0.002*[#   4]+0.002*[#   6]
    |psi|^2 = 0.147
==== e(   8) =    25.41722 eV ==== 
     psi = 0.045*[#   1]
    |psi|^2 = 0.047

 k =  -0.0833333333  0.7500000000 -0.2500000000
==== e(   1) =     8.89644 eV ==== 
     psi = 0.423*[#   2]+0.423*[#   5]+0.047*[#   3]+0.047*[#   4]+0.047*[#   6]
          +0.012*[#   1]
    |psi|^2 = 0.999
==== e(   2) =     9.33788 eV ==== 
     psi = 0.487*[#   2]+0.487*[#   5]+0.005*[#   3]+0.005*[#   4]+0.005*[#   6]
          
    |psi|^2 = 0.991
==== e(   3) =    10.72887 eV ==== 
     psi = 0.322*[#   3]+0.322*[#   4]+0.322*[#   6]+0.013*[#   2]+0.013*[#   5]
          +0.006*[#   1]
    |psi|^2 = 1.000
==== e(   4) =    11.77567 eV ==== 
     psi = 0.288*[#   3]+0.288*[#   4]+0.288*[#   6]+0.062*[#   2]+0.062*[#   5]
          +0.010*[#   1]
    |psi|^2 = 0.999
==== e(   5) =    12.89787 eV ==== 
     psi = 0.326*[#   3]+0.326*[#   4]+0.326*[#   6]+0.009*[#   2]+0.009*[#   5]
          
    |psi|^2 = 0.996
==== e(   6) =    18.22595 eV ==== 
     psi = 0.004*[#   2]+0.004*[#   5]+0.001*[#   3]+0.001*[#   4]+0.001*[#   6]
          
    |psi|^2 = 0.011
==== e(   7) =    20.57471 eV ==== 
     psi = 0.868*[#   1]+0.008*[#   3]+0.008*[#   4]+0.008*[#   6]+0.001*[#   2]
          +0.001*[#   5]
    |psi|^2 = 0.895
==== e(   8) =    25.06150 eV ==== 
     psi = 0.077*[#   1]
    |psi|^2 = 0.079

 k =  -0.1666666667  0.8333333333 -0.2500000000
==== e(   1) =     9.04656 eV ==== 
     psi = 0.468*[#   2]+0.468*[#   5]+0.021*[#   3]+0.021*[#   4]+0.021*[#   6]
          
    |psi|^2 = 0.999
==== e(   2) =     9.09945 eV ==== 
     psi = 0.469*[#   2]+0.469*[#   5]+0.017*[#   3]+0.017*[#   4]+0.017*[#   6]
          +0.007*[#   1]
    |psi|^2 = 0.996
==== e(   3) =    10.68263 eV ==== 
     psi = 0.325*[#   3]+0.325*[#   4]+0.325*[#   6]+0.011*[#   1]+0.007*[#   2]
          +0.007*[#   5]
    |psi|^2 = 0.999
==== e(   4) =    12.19713 eV ==== 
     psi = 0.311*[#   3]+0.311*[#   4]+0.311*[#   6]+0.032*[#   2]+0.032*[#   5]
          
    |psi|^2 = 0.997
==== e(   5) =    12.63875 eV ==== 
     psi = 0.317*[#   3]+0.317*[#   4]+0.317*[#   6]+0.021*[#   2]+0.021*[#   5]
          +0.003*[#   1]
    |psi|^2 = 0.996
==== e(   6) =    18.84095 eV ==== 
     psi = 0.344*[#   1]+0.004*[#   3]+0.004*[#   4]+0.004*[#   6]+0.003*[#   2]
          +0.003*[#   5]
    |psi|^2 = 0.363
==== e(   7) =    21.68224 eV ==== 
     psi = 0.001*[#   3]+0.001*[#   4]+0.001*[#   6]
    |psi|^2 = 0.003
==== e(   8) =    22.74033 eV ==== 
     psi = 0.607*[#   1]+0.003*[#   3]+0.003*[#   4]+0.003*[#   6]
    |psi|^2 = 0.616

 k =   0.5833333333 -0.5833333333  0.4166666667
==== e(   1) =     9.61127 eV ==== 
     psi = 0.318*[#   3]+0.318*[#   4]+0.318*[#   6]+0.022*[#   2]+0.022*[#   5]
          
    |psi|^2 = 0.998
==== e(   2) =     9.61127 eV ==== 
     psi = 0.318*[#   3]+0.318*[#   4]+0.318*[#   6]+0.022*[#   2]+0.022*[#   5]
          
    |psi|^2 = 0.998
==== e(   3) =     9.97270 eV ==== 
     psi = 0.308*[#   3]+0.308*[#   4]+0.308*[#   6]+0.058*[#   1]
    |psi|^2 = 0.983
==== e(   4) =    11.92925 eV ==== 
     psi = 0.477*[#   2]+0.477*[#   5]+0.015*[#   3]+0.015*[#   4]+0.015*[#   6]
          
    |psi|^2 = 0.999
==== e(   5) =    11.92925 eV ==== 
     psi = 0.477*[#   2]+0.477*[#   5]+0.015*[#   3]+0.015*[#   4]+0.015*[#   6]
          
    |psi|^2 = 0.999
==== e(   6) =    17.76381 eV ==== 
     psi = 0.535*[#   1]+0.024*[#   3]+0.024*[#   4]+0.024*[#   6]
    |psi|^2 = 0.607
==== e(   7) =    23.28261 eV ==== 

    |psi|^2 = 0.001
==== e(   8) =    23.28261 eV ==== 

    |psi|^2 = 0.001

 k =   0.5000000000 -0.5000000000  0.4166666667
==== e(   1) =     9.61183 eV ==== 
     psi = 0.333*[#   3]+0.333*[#   4]+0.333*[#   6]
    |psi|^2 = 0.998
==== e(   2) =     9.64247 eV ==== 
     psi = 0.315*[#   3]+0.315*[#   4]+0.315*[#   6]+0.023*[#   2]+0.023*[#   5]
          +0.007*[#   1]
    |psi|^2 = 0.996
==== e(   3) =    10.03782 eV ==== 
     psi = 0.329*[#   3]+0.329*[#   4]+0.329*[#   6]
    |psi|^2 = 0.986
==== e(   4) =    11.94211 eV ==== 
     psi = 0.477*[#   2]+0.477*[#   5]+0.015*[#   3]+0.015*[#   4]+0.015*[#   6]
          
    |psi|^2 = 0.999
==== e(   5) =    11.94475 eV ==== 
     psi = 0.499*[#   2]+0.499*[#   5]
    |psi|^2 = 0.999
==== e(   6) =    19.77299 eV ==== 
     psi = 0.005*[#   3]+0.005*[#   4]+0.005*[#   6]
    |psi|^2 = 0.014
==== e(   7) =    21.01139 eV ==== 
     psi = 0.416*[#   1]+0.003*[#   3]+0.003*[#   4]+0.003*[#   6]
    |psi|^2 = 0.427
==== e(   8) =    23.03001 eV ==== 

    |psi|^2 = 0.002

 k =   0.0000000000  0.0000000000  0.5833333333
==== e(   1) =     8.81498 eV ==== 
     psi = 0.389*[#   2]+0.389*[#   5]+0.222*[#   1]
    |psi|^2 = 0.999
==== e(   2) =     9.50297 eV ==== 
     psi = 0.500*[#   2]+0.500*[#   5]
    |psi|^2 = 1.000
==== e(   3) =    11.33081 eV ==== 
     psi = 0.333*[#   3]+0.333*[#   4]+0.333*[#   6]
    |psi|^2 = 0.999
==== e(   4) =    11.33081 eV ==== 
     psi = 0.333*[#   3]+0.333*[#   4]+0.333*[#   6]
    |psi|^2 = 0.999
==== e(   5) =    12.02635 eV ==== 
     psi = 0.333*[#   3]+0.333*[#   4]+0.333*[#   6]
    |psi|^2 = 0.999
==== e(   6) =    14.12551 eV ==== 
     psi = 0.769*[#   1]+0.111*[#   2]+0.111*[#   5]
    |psi|^2 = 0.991
==== e(   7) =    27.85574 eV ==== 

    |psi|^2 = 0.000
==== e(   8) =    27.85574 eV ==== 

    |psi|^2 = 0.000

 k =   0.0000000000 -0.0833333333  0.6666666667
==== e(   1) =     8.87796 eV ==== 
     psi = 0.454*[#   2]+0.454*[#   5]+0.068*[#   1]+0.007*[#   3]+0.007*[#   4]
          +0.007*[#   6]
    |psi|^2 = 0.998
==== e(   2) =     9.11345 eV ==== 
     psi = 0.493*[#   2]+0.493*[#   5]+0.003*[#   1]+0.003*[#   3]+0.003*[#   4]
          +0.003*[#   6]
    |psi|^2 = 0.999
==== e(   3) =    11.44207 eV ==== 
     psi = 0.333*[#   3]+0.333*[#   4]+0.333*[#   6]
    |psi|^2 = 0.999
==== e(   4) =    11.63607 eV ==== 
     psi = 0.319*[#   3]+0.319*[#   4]+0.319*[#   6]+0.019*[#   2]+0.019*[#   5]
          +0.004*[#   1]
    |psi|^2 = 0.999
==== e(   5) =    12.50998 eV ==== 
     psi = 0.333*[#   3]+0.333*[#   4]+0.333*[#   6]
    |psi|^2 = 0.999
==== e(   6) =    15.86327 eV ==== 
     psi = 0.870*[#   1]+0.033*[#   2]+0.033*[#   5]+0.003*[#   3]+0.003*[#   4]
          +0.003*[#   6]
    |psi|^2 = 0.945
==== e(   7) =    24.86075 eV ==== 
     psi = 0.031*[#   1]
    |psi|^2 = 0.033
==== e(   8) =    26.39402 eV ==== 

    |psi|^2 = 0.001

 k =   0.0000000000 -0.1666666667  0.7500000000
==== e(   1) =     8.76707 eV ==== 
     psi = 0.467*[#   2]+0.467*[#   5]+0.018*[#   3]+0.018*[#   4]+0.018*[#   6]
          +0.010*[#   1]
    |psi|^2 = 0.999
==== e(   2) =     8.99036 eV ==== 
     psi = 0.496*[#   2]+0.496*[#   5]+0.004*[#   1]
    |psi|^2 = 0.996
==== e(   3) =    11.41623 eV ==== 
     psi = 0.333*[#   3]+0.333*[#   4]+0.333*[#   6]
    |psi|^2 = 0.999
==== e(   4) =    11.78398 eV ==== 
     psi = 0.308*[#   3]+0.308*[#   4]+0.308*[#   6]+0.030*[#   2]+0.030*[#   5]
          +0.014*[#   1]
    |psi|^2 = 0.999
==== e(   5) =    12.92904 eV ==== 
     psi = 0.333*[#   3]+0.333*[#   4]+0.333*[#   6]
    |psi|^2 = 0.999
==== e(   6) =    18.16826 eV ==== 
     psi = 0.490*[#   1]+0.005*[#   2]+0.005*[#   5]+0.003*[#   3]+0.003*[#   4]
          +0.003*[#   6]
    |psi|^2 = 0.510
==== e(   7) =    21.70551 eV ==== 
     psi = 0.424*[#   1]+0.003*[#   3]+0.003*[#   4]+0.003*[#   6]
    |psi|^2 = 0.436
==== e(   8) =    25.56802 eV ==== 

    |psi|^2 = 0.001

 k =  -0.0833333333 -0.0833333333  0.7500000000
==== e(   1) =     8.78269 eV ==== 
     psi = 0.486*[#   2]+0.486*[#   5]+0.017*[#   1]+0.004*[#   3]+0.004*[#   4]
          +0.004*[#   6]
    |psi|^2 = 0.998
==== e(   2) =     8.80105 eV ==== 
     psi = 0.492*[#   2]+0.492*[#   5]+0.005*[#   3]+0.005*[#   4]+0.005*[#   6]
          
    |psi|^2 = 0.999
==== e(   3) =    11.53466 eV ==== 
     psi = 0.329*[#   3]+0.329*[#   4]+0.329*[#   6]+0.006*[#   1]+0.003*[#   2]
          +0.003*[#   5]
    |psi|^2 = 0.999
==== e(   4) =    12.12657 eV ==== 
     psi = 0.328*[#   3]+0.328*[#   4]+0.328*[#   6]+0.008*[#   2]+0.008*[#   5]
          
    |psi|^2 = 0.998
==== e(   5) =    12.73985 eV ==== 
     psi = 0.330*[#   3]+0.330*[#   4]+0.330*[#   6]+0.003*[#   1]+0.003*[#   2]
          +0.003*[#   5]
    |psi|^2 = 0.999
==== e(   6) =    17.97903 eV ==== 
     psi = 0.753*[#   1]+0.007*[#   2]+0.007*[#   5]+0.003*[#   3]+0.003*[#   4]
          +0.003*[#   6]
    |psi|^2 = 0.776
==== e(   7) =    23.62319 eV ==== 

    |psi|^2 = 0.002
==== e(   8) =    24.00624 eV ==== 
     psi = 0.172*[#   1]+0.001*[#   3]+0.001*[#   4]+0.001*[#   6]
    |psi|^2 = 0.176

 k =  -0.0833333333  0.8333333333 -0.1666666667
==== e(   1) =     8.67735 eV ==== 
     psi = 0.488*[#   2]+0.488*[#   5]+0.007*[#   3]+0.007*[#   4]+0.007*[#   6]
          +0.002*[#   1]
    |psi|^2 = 0.999
==== e(   2) =     8.74952 eV ==== 
     psi = 0.496*[#   2]+0.496*[#   5]+0.002*[#   3]+0.002*[#   4]+0.002*[#   6]
          
    |psi|^2 = 0.998
==== e(   3) =    11.52376 eV ==== 
     psi = 0.330*[#   3]+0.330*[#   4]+0.330*[#   6]+0.008*[#   1]+0.001*[#   2]
          +0.001*[#   5]
    |psi|^2 = 0.999
==== e(   4) =    12.34385 eV ==== 
     psi = 0.325*[#   3]+0.325*[#   4]+0.325*[#   6]+0.010*[#   2]+0.010*[#   5]
          +0.003*[#   1]
    |psi|^2 = 0.998
==== e(   5) =    12.84572 eV ==== 
     psi = 0.331*[#   3]+0.331*[#   4]+0.331*[#   6]+0.003*[#   2]+0.003*[#   5]
          
    |psi|^2 = 0.998
==== e(   6) =    20.13948 eV ==== 

    |psi|^2 = 0.003
==== e(   7) =    21.27990 eV ==== 
     psi = 0.690*[#   1]+0.003*[#   3]+0.003*[#   4]+0.003*[#   6]
    |psi|^2 = 0.702
==== e(   8) =    23.46868 eV ==== 
     psi = 0.224*[#   1]+0.001*[#   3]+0.001*[#   4]+0.001*[#   6]
    |psi|^2 = 0.227

 k =   0.0000000000  0.0000000000  0.7500000000
==== e(   1) =     8.66244 eV ==== 
     psi = 0.490*[#   2]+0.490*[#   5]+0.020*[#   1]
    |psi|^2 = 0.999
==== e(   2) =     8.71988 eV ==== 
     psi = 0.500*[#   2]+0.500*[#   5]
    |psi|^2 = 0.999
==== e(   3) =    12.09743 eV ==== 
     psi = 0.333*[#   3]+0.333*[#   4]+0.333*[#   6]
    |psi|^2 = 0.998
==== e(   4) =    12.09743 eV ==== 
     psi = 0.333*[#   3]+0.333*[#   4]+0.333*[#   6]
    |psi|^2 = 0.998
==== e(   5) =    12.54917 eV ==== 
     psi = 0.333*[#   3]+0.333*[#   4]+0.333*[#   6]
    |psi|^2 = 0.999
==== e(   6) =    17.64316 eV ==== 
     psi = 0.900*[#   1]+0.010*[#   2]+0.010*[#   5]
    |psi|^2 = 0.919
==== e(   7) =    24.82572 eV ==== 

    |psi|^2 = 0.001
==== e(   8) =    24.82572 eV ==== 

    |psi|^2 = 0.001

 k =   0.0000000000 -0.0833333333  0.8333333333
==== e(   1) =     8.48858 eV ==== 
     psi = 0.497*[#   2]+0.497*[#   5]+0.002*[#   1]+0.001*[#   3]+0.001*[#   4]
          +0.001*[#   6]
    |psi|^2 = 0.999
==== e(   2) =     8.51503 eV ==== 
     psi = 0.499*[#   2]+0.499*[#   5]+0.001*[#   1]
    |psi|^2 = 0.999
==== e(   3) =    12.24338 eV ==== 
     psi = 0.333*[#   3]+0.333*[#   4]+0.333*[#   6]
    |psi|^2 = 0.998
==== e(   4) =    12.38089 eV ==== 
     psi = 0.330*[#   3]+0.330*[#   4]+0.330*[#   6]+0.004*[#   1]+0.002*[#   2]
          +0.002*[#   5]
    |psi|^2 = 0.999
==== e(   5) =    12.87026 eV ==== 
     psi = 0.333*[#   3]+0.333*[#   4]+0.333*[#   6]
    |psi|^2 = 0.999
==== e(   6) =    19.90827 eV ==== 
     psi = 0.594*[#   1]+0.001*[#   2]+0.001*[#   5]
    |psi|^2 = 0.599
==== e(   7) =    22.66319 eV ==== 
     psi = 0.232*[#   1]+0.001*[#   3]+0.001*[#   4]+0.001*[#   6]
    |psi|^2 = 0.235
==== e(   8) =    23.92519 eV ==== 

    |psi|^2 = 0.001

 k =  -0.0833333333  0.9166666667 -0.0833333333
==== e(   1) =     8.39430 eV ==== 
     psi = 0.499*[#   2]+0.499*[#   5]
    |psi|^2 = 0.999
==== e(   2) =     8.39430 eV ==== 
     psi = 0.499*[#   2]+0.499*[#   5]
    |psi|^2 = 0.999
==== e(   3) =    12.32739 eV ==== 
     psi = 0.332*[#   3]+0.332*[#   4]+0.332*[#   6]+0.003*[#   1]
    |psi|^2 = 0.999
==== e(   4) =    12.80113 eV ==== 
     psi = 0.332*[#   3]+0.332*[#   4]+0.332*[#   6]
    |psi|^2 = 0.998
==== e(   5) =    12.80113 eV ==== 
     psi = 0.332*[#   3]+0.332*[#   4]+0.332*[#   6]
    |psi|^2 = 0.998
==== e(   6) =    21.98369 eV ==== 

    |psi|^2 = 0.001
==== e(   7) =    21.98369 eV ==== 

    |psi|^2 = 0.001
==== e(   8) =    22.56328 eV ==== 
     psi = 0.750*[#   1]+0.001*[#   3]+0.001*[#   4]+0.001*[#   6]
    |psi|^2 = 0.754

 k =   0.0000000000  0.0000000000  0.9166666667
==== e(   1) =     8.27570 eV ==== 
     psi = 0.500*[#   2]+0.500*[#   5]
    |psi|^2 = 0.999
==== e(   2) =     8.27892 eV ==== 
     psi = 0.500*[#   2]+0.500*[#   5]
    |psi|^2 = 0.999
==== e(   3) =    12.78410 eV ==== 
     psi = 0.333*[#   3]+0.333*[#   4]+0.333*[#   6]
    |psi|^2 = 0.999
==== e(   4) =    12.78410 eV ==== 
     psi = 0.333*[#   3]+0.333*[#   4]+0.333*[#   6]
    |psi|^2 = 0.999
==== e(   5) =    12.85531 eV ==== 
     psi = 0.333*[#   3]+0.333*[#   4]+0.333*[#   6]
    |psi|^2 = 0.999
==== e(   6) =    21.70899 eV ==== 
     psi = 0.439*[#   1]
    |psi|^2 = 0.439
==== e(   7) =    22.96630 eV ==== 

    |psi|^2 = 0.001
==== e(   8) =    22.96630 eV ==== 

    |psi|^2 = 0.001

 k =   0.0000000000  0.0000000000  0.0833333333
==== e(   1) =     4.95461 eV ==== 
     psi = 0.997*[#   1]
    |psi|^2 = 0.997
==== e(   2) =    12.83913 eV ==== 
     psi = 0.333*[#   3]+0.333*[#   4]+0.333*[#   6]
    |psi|^2 = 1.000
==== e(   3) =    12.83913 eV ==== 
     psi = 0.333*[#   3]+0.333*[#   4]+0.333*[#   6]
    |psi|^2 = 1.000
==== e(   4) =    12.88816 eV ==== 
     psi = 0.333*[#   3]+0.333*[#   4]+0.333*[#   6]
    |psi|^2 = 1.000
==== e(   5) =    14.75434 eV ==== 
     psi = 0.500*[#   2]+0.500*[#   5]
    |psi|^2 = 0.999
==== e(   6) =    14.86762 eV ==== 
     psi = 0.500*[#   2]+0.500*[#   5]
    |psi|^2 = 1.000
==== e(   7) =    36.22669 eV ==== 

    |psi|^2 = 0.000
==== e(   8) =    36.92453 eV ==== 

    |psi|^2 = 0.000

 k =   0.0000000000 -0.0833333333  0.1666666667
==== e(   1) =     5.50850 eV ==== 
     psi = 0.992*[#   1]+0.001*[#   2]+0.001*[#   5]
    |psi|^2 = 0.997
==== e(   2) =    12.68060 eV ==== 
     psi = 0.333*[#   3]+0.333*[#   4]+0.333*[#   6]
    |psi|^2 = 0.999
==== e(   3) =    12.79556 eV ==== 
     psi = 0.328*[#   3]+0.328*[#   4]+0.328*[#   6]+0.007*[#   2]+0.007*[#   5]
          +0.003*[#   1]
    |psi|^2 = 0.999
==== e(   4) =    13.19127 eV ==== 
     psi = 0.333*[#   3]+0.333*[#   4]+0.333*[#   6]
    |psi|^2 = 1.000
==== e(   5) =    14.54599 eV ==== 
     psi = 0.493*[#   2]+0.493*[#   5]+0.004*[#   3]+0.004*[#   4]+0.004*[#   6]
          
    |psi|^2 = 0.999
==== e(   6) =    14.91593 eV ==== 
     psi = 0.498*[#   2]+0.498*[#   5]+0.002*[#   1]
    |psi|^2 = 1.000
==== e(   7) =    34.12024 eV ==== 

    |psi|^2 = 0.002
==== e(   8) =    36.09043 eV ==== 

    |psi|^2 = 0.001

 k =   0.0000000000 -0.1666666667  0.2500000000
==== e(   1) =     6.54716 eV ==== 
     psi = 0.958*[#   1]+0.009*[#   3]+0.009*[#   4]+0.009*[#   6]+0.006*[#   2]
          +0.006*[#   5]
    |psi|^2 = 0.997
==== e(   2) =    12.39212 eV ==== 
     psi = 0.333*[#   3]+0.333*[#   4]+0.333*[#   6]
    |psi|^2 = 0.999
==== e(   3) =    12.63436 eV ==== 
     psi = 0.288*[#   3]+0.288*[#   4]+0.288*[#   6]+0.050*[#   2]+0.050*[#   5]
          +0.032*[#   1]
    |psi|^2 = 0.997
==== e(   4) =    13.77437 eV ==== 
     psi = 0.333*[#   3]+0.333*[#   4]+0.333*[#   6]
    |psi|^2 = 0.999
==== e(   5) =    14.38816 eV ==== 
     psi = 0.448*[#   2]+0.448*[#   5]+0.034*[#   3]+0.034*[#   4]+0.034*[#   6]
          
    |psi|^2 = 0.998
==== e(   6) =    14.96556 eV ==== 
     psi = 0.494*[#   2]+0.494*[#   5]+0.006*[#   1]+0.002*[#   3]+0.002*[#   4]
          +0.002*[#   6]
    |psi|^2 = 0.999
==== e(   7) =    30.83486 eV ==== 
     psi = 0.001*[#   2]+0.001*[#   5]
    |psi|^2 = 0.004
==== e(   8) =    34.43967 eV ==== 

    |psi|^2 = 0.001

 k =   0.0000000000 -0.2500000000  0.3333333333
==== e(   1) =     7.88091 eV ==== 
     psi = 0.818*[#   1]+0.041*[#   3]+0.041*[#   4]+0.041*[#   6]+0.026*[#   2]
          +0.026*[#   5]
    |psi|^2 = 0.995
==== e(   2) =    12.07291 eV ==== 
     psi = 0.333*[#   3]+0.333*[#   4]+0.333*[#   6]
    |psi|^2 = 0.999
==== e(   3) =    12.43441 eV ==== 
     psi = 0.208*[#   3]+0.208*[#   4]+0.208*[#   6]+0.153*[#   1]+0.104*[#   2]
          +0.104*[#   5]
    |psi|^2 = 0.985
==== e(   4) =    14.42082 eV ==== 
     psi = 0.378*[#   2]+0.378*[#   5]+0.081*[#   3]+0.081*[#   4]+0.081*[#   6]
          
    |psi|^2 = 0.999
==== e(   5) =    14.51412 eV ==== 
     psi = 0.333*[#   3]+0.333*[#   4]+0.333*[#   6]
    |psi|^2 = 0.999
==== e(   6) =    15.03128 eV ==== 
     psi = 0.488*[#   2]+0.488*[#   5]+0.017*[#   1]+0.002*[#   3]+0.002*[#   4]
          +0.002*[#   6]
    |psi|^2 = 0.999
==== e(   7) =    27.27306 eV ==== 
     psi = 0.009*[#   1]+0.002*[#   2]+0.002*[#   3]+0.002*[#   4]+0.002*[#   5]
          +0.002*[#   6]
    |psi|^2 = 0.018
==== e(   8) =    32.81695 eV ==== 

    |psi|^2 = 0.001

 k =   0.0000000000 -0.3333333333  0.4166666667
==== e(   1) =     9.05897 eV ==== 
     psi = 0.462*[#   1]+0.123*[#   3]+0.123*[#   4]+0.123*[#   6]+0.079*[#   2]
          +0.079*[#   5]
    |psi|^2 = 0.990
==== e(   2) =    11.80782 eV ==== 
     psi = 0.333*[#   3]+0.333*[#   4]+0.333*[#   6]
    |psi|^2 = 0.999
==== e(   3) =    12.59715 eV ==== 
[...]
    |psi|^2 = 0.997
==== e(   4) =    13.78214 eV ==== 
     psi = 0.227*[#   3]+0.227*[#   4]+0.227*[#   6]+0.154*[#   2]+0.154*[#   5]
          
    |psi|^2 = 0.991
==== e(   5) =    15.08287 eV ==== 
     psi = 0.333*[#   3]+0.333*[#   4]+0.333*[#   6]
    |psi|^2 = 0.999
==== e(   6) =    16.43156 eV ==== 
     psi = 0.544*[#   1]+0.191*[#   2]+0.191*[#   5]+0.009*[#   3]+0.009*[#   4]
          +0.009*[#   6]
    |psi|^2 = 0.951
==== e(   7) =    24.89446 eV ==== 
     psi = 0.059*[#   1]+0.005*[#   3]+0.005*[#   4]+0.005*[#   6]+0.002*[#   2]
          +0.002*[#   5]
    |psi|^2 = 0.078
==== e(   8) =    28.96742 eV ==== 
     psi = 0.001*[#   3]+0.001*[#   4]+0.001*[#   6]
    |psi|^2 = 0.004

 k =   0.0000000000 -0.2500000000  0.6666666667
==== e(   1) =    10.50393 eV ==== 
     psi = 0.287*[#   2]+0.287*[#   5]+0.105*[#   3]+0.105*[#   4]+0.105*[#   6]
          +0.104*[#   1]
    |psi|^2 = 0.992
==== e(   2) =    11.58512 eV ==== 
     psi = 0.434*[#   2]+0.434*[#   5]+0.019*[#   1]+0.007*[#   3]+0.007*[#   4]
          +0.007*[#   6]
    |psi|^2 = 0.908
==== e(   3) =    12.70733 eV ==== 
     psi = 0.332*[#   3]+0.332*[#   4]+0.332*[#   6]
    |psi|^2 = 0.996
==== e(   4) =    13.88123 eV ==== 
     psi = 0.198*[#   3]+0.198*[#   4]+0.198*[#   6]+0.195*[#   2]+0.195*[#   5]
          +0.013*[#   1]
    |psi|^2 = 0.995
==== e(   5) =    15.57289 eV ==== 
     psi = 0.333*[#   3]+0.333*[#   4]+0.333*[#   6]
    |psi|^2 = 0.999
==== e(   6) =    17.82371 eV ==== 
     psi = 0.297*[#   1]+0.076*[#   2]+0.076*[#   5]+0.006*[#   3]+0.006*[#   4]
          +0.006*[#   6]
    |psi|^2 = 0.467
==== e(   7) =    22.12427 eV ==== 
     psi = 0.546*[#   1]+0.018*[#   3]+0.018*[#   4]+0.018*[#   6]+0.006*[#   2]
          +0.006*[#   5]
    |psi|^2 = 0.611
==== e(   8) =    28.15957 eV ==== 
     psi = 0.001*[#   3]+0.001*[#   4]+0.001*[#   6]
    |psi|^2 = 0.003

 k =  -0.0833333333 -0.0833333333  0.5833333333
==== e(   1) =     9.98114 eV ==== 
     psi = 0.411*[#   1]+0.259*[#   2]+0.259*[#   5]+0.021*[#   3]+0.021*[#   4]
          +0.021*[#   6]
    |psi|^2 = 0.991
==== e(   2) =    11.76200 eV ==== 
     psi = 0.432*[#   2]+0.432*[#   5]+0.043*[#   3]+0.043*[#   4]+0.043*[#   6]
          
    |psi|^2 = 0.991
==== e(   3) =    13.06283 eV ==== 
     psi = 0.314*[#   3]+0.314*[#   4]+0.314*[#   6]+0.023*[#   2]+0.023*[#   5]
          +0.004*[#   1]
    |psi|^2 = 0.992
==== e(   4) =    13.69236 eV ==== 
     psi = 0.288*[#   3]+0.288*[#   4]+0.288*[#   6]+0.065*[#   2]+0.065*[#   5]
          
    |psi|^2 = 0.995
==== e(   5) =    14.81256 eV ==== 
     psi = 0.316*[#   3]+0.316*[#   4]+0.316*[#   6]+0.024*[#   2]+0.024*[#   5]
          +0.003*[#   1]
    |psi|^2 = 0.999
==== e(   6) =    16.36566 eV ==== 
     psi = 0.554*[#   1]+0.194*[#   2]+0.194*[#   5]+0.013*[#   3]+0.013*[#   4]
          +0.013*[#   6]
    |psi|^2 = 0.981
==== e(   7) =    26.91040 eV ==== 
     psi = 0.002*[#   2]+0.002*[#   3]+0.002*[#   4]+0.002*[#   5]+0.002*[#   6]
          
    |psi|^2 = 0.009
==== e(   8) =    27.19211 eV ==== 
     psi = 0.023*[#   1]+0.003*[#   3]+0.003*[#   4]+0.003*[#   6]
    |psi|^2 = 0.031

 k =  -0.0833333333 -0.1666666667  0.6666666667
==== e(   1) =    10.61286 eV ==== 
     psi = 0.344*[#   2]+0.344*[#   5]+0.159*[#   1]+0.045*[#   3]+0.045*[#   4]
          +0.045*[#   6]
    |psi|^2 = 0.980
==== e(   2) =    11.34844 eV ==== 
     psi = 0.436*[#   2]+0.436*[#   5]+0.033*[#   3]+0.033*[#   4]+0.033*[#   6]
          +0.007*[#   1]
    |psi|^2 = 0.977
==== e(   3) =    12.91177 eV ==== 
     psi = 0.310*[#   3]+0.310*[#   4]+0.310*[#   6]+0.030*[#   2]+0.030*[#   5]
          +0.001*[#   1]
    |psi|^2 = 0.991
==== e(   4) =    14.04923 eV ==== 
     psi = 0.272*[#   3]+0.272*[#   4]+0.272*[#   6]+0.087*[#   2]+0.087*[#   5]
          +0.004*[#   1]
    |psi|^2 = 0.994
==== e(   5) =    15.24563 eV ==== 
     psi = 0.311*[#   3]+0.311*[#   4]+0.311*[#   6]+0.027*[#   2]+0.027*[#   5]
          +0.012*[#   1]
    |psi|^2 = 0.998
==== e(   6) =    17.84393 eV ==== 
     psi = 0.609*[#   1]+0.071*[#   2]+0.071*[#   5]+0.020*[#   3]+0.020*[#   4]
          +0.020*[#   6]
    |psi|^2 = 0.812
==== e(   7) =    23.75814 eV ==== 
     psi = 0.152*[#   1]+0.007*[#   3]+0.007*[#   4]+0.007*[#   6]+0.003*[#   2]
          +0.003*[#   5]
    |psi|^2 = 0.179
==== e(   8) =    26.07734 eV ==== 
     psi = 0.041*[#   1]+0.003*[#   3]+0.003*[#   4]+0.003*[#   6]
    |psi|^2 = 0.050

 k =  -0.0833333333  0.7500000000 -0.2500000000
==== e(   1) =    10.80616 eV ==== 
     psi = 0.369*[#   2]+0.369*[#   5]+0.070*[#   3]+0.070*[#   4]+0.070*[#   6]
          +0.043*[#   1]
    |psi|^2 = 0.992
==== e(   2) =    11.24412 eV ==== 
     psi = 0.453*[#   2]+0.453*[#   5]+0.009*[#   3]+0.009*[#   4]+0.009*[#   6]
          
    |psi|^2 = 0.931
==== e(   3) =    12.81382 eV ==== 
     psi = 0.313*[#   3]+0.313*[#   4]+0.313*[#   6]+0.022*[#   2]+0.022*[#   5]
          +0.012*[#   1]
    |psi|^2 = 0.995
==== e(   4) =    14.15101 eV ==== 
     psi = 0.260*[#   3]+0.260*[#   4]+0.260*[#   6]+0.100*[#   2]+0.100*[#   5]
          +0.017*[#   1]
    |psi|^2 = 0.997
==== e(   5) =    15.45422 eV ==== 
     psi = 0.319*[#   3]+0.319*[#   4]+0.319*[#   6]+0.018*[#   2]+0.018*[#   5]
          
    |psi|^2 = 0.993
==== e(   6) =    19.31316 eV ==== 
     psi = 0.029*[#   2]+0.029*[#   5]+0.005*[#   3]+0.005*[#   4]+0.005*[#   6]
          
    |psi|^2 = 0.075
==== e(   7) =    21.70364 eV ==== 
     psi = 0.834*[#   1]+0.020*[#   3]+0.020*[#   4]+0.020*[#   6]+0.007*[#   2]
          +0.007*[#   5]
    |psi|^2 = 0.909
==== e(   8) =    25.69806 eV ==== 
     psi = 0.068*[#   1]+0.003*[#   3]+0.003*[#   4]+0.003*[#   6]
    |psi|^2 = 0.077

 k =  -0.1666666667  0.8333333333 -0.2500000000
==== e(   1) =    10.97927 eV ==== 
     psi = 0.427*[#   2]+0.427*[#   5]+0.028*[#   1]+0.027*[#   3]+0.027*[#   4]
          +0.027*[#   6]
    |psi|^2 = 0.963
==== e(   2) =    11.07822 eV ==== 
     psi = 0.439*[#   2]+0.439*[#   5]+0.033*[#   3]+0.033*[#   4]+0.033*[#   6]
          
    |psi|^2 = 0.978
==== e(   3) =    12.70566 eV ==== 
     psi = 0.314*[#   3]+0.314*[#   4]+0.314*[#   6]+0.026*[#   1]+0.013*[#   2]
          +0.013*[#   5]
    |psi|^2 = 0.995
==== e(   4) =    14.62124 eV ==== 
     psi = 0.295*[#   3]+0.295*[#   4]+0.295*[#   6]+0.054*[#   2]+0.054*[#   5]
          
    |psi|^2 = 0.991
==== e(   5) =    15.14760 eV ==== 
     psi = 0.303*[#   3]+0.303*[#   4]+0.303*[#   6]+0.039*[#   2]+0.039*[#   5]
          +0.007*[#   1]
    |psi|^2 = 0.992
==== e(   6) =    19.95879 eV ==== 
     psi = 0.312*[#   1]+0.020*[#   2]+0.020*[#   5]+0.013*[#   3]+0.013*[#   4]
          +0.013*[#   6]
    |psi|^2 = 0.391
==== e(   7) =    22.64227 eV ==== 
     psi = 0.006*[#   2]+0.006*[#   5]+0.005*[#   3]+0.005*[#   4]+0.005*[#   6]
          
    |psi|^2 = 0.028
==== e(   8) =    23.48516 eV ==== 
     psi = 0.599*[#   1]+0.009*[#   3]+0.009*[#   4]+0.009*[#   6]
    |psi|^2 = 0.628

 k =   0.5833333333 -0.5833333333  0.4166666667
==== e(   1) =    11.22447 eV ==== 
     psi = 0.273*[#   3]+0.273*[#   4]+0.273*[#   6]+0.122*[#   1]
    |psi|^2 = 0.943
==== e(   2) =    11.33552 eV ==== 
     psi = 0.318*[#   3]+0.318*[#   4]+0.318*[#   6]+0.015*[#   2]+0.015*[#   5]
          
    |psi|^2 = 0.983
==== e(   3) =    11.33552 eV ==== 
     psi = 0.318*[#   3]+0.318*[#   4]+0.318*[#   6]+0.015*[#   2]+0.015*[#   5]
          
    |psi|^2 = 0.983
==== e(   4) =    15.08127 eV ==== 
     psi = 0.484*[#   2]+0.484*[#   5]+0.010*[#   3]+0.010*[#   4]+0.010*[#   6]
          
    |psi|^2 = 1.000
==== e(   5) =    15.08127 eV ==== 
     psi = 0.484*[#   2]+0.484*[#   5]+0.010*[#   3]+0.010*[#   4]+0.010*[#   6]
          
    |psi|^2 = 1.000
==== e(   6) =    19.14624 eV ==== 
     psi = 0.454*[#   1]+0.059*[#   3]+0.059*[#   4]+0.059*[#   6]
    |psi|^2 = 0.630
==== e(   7) =    24.11194 eV ==== 
     psi = 0.005*[#   3]+0.005*[#   4]+0.005*[#   6]
    |psi|^2 = 0.017
==== e(   8) =    24.11194 eV ==== 
     psi = 0.005*[#   3]+0.005*[#   4]+0.005*[#   6]
    |psi|^2 = 0.017

 k =   0.5000000000 -0.5000000000  0.4166666667
==== e(   1) =    11.23036 eV ==== 
     psi = 0.309*[#   3]+0.309*[#   4]+0.309*[#   6]+0.017*[#   1]+0.015*[#   2]
          +0.015*[#   5]
    |psi|^2 = 0.973
==== e(   2) =    11.30643 eV ==== 
     psi = 0.327*[#   3]+0.327*[#   4]+0.327*[#   6]
    |psi|^2 = 0.982
==== e(   3) =    11.54194 eV ==== 
     psi = 0.312*[#   3]+0.312*[#   4]+0.312*[#   6]
    |psi|^2 = 0.937
==== e(   4) =    15.09781 eV ==== 
     psi = 0.484*[#   2]+0.484*[#   5]+0.011*[#   3]+0.011*[#   4]+0.011*[#   6]
          
    |psi|^2 = 1.000
==== e(   5) =    15.13137 eV ==== 
     psi = 0.500*[#   2]+0.500*[#   5]
    |psi|^2 = 1.000
==== e(   6) =    20.83794 eV ==== 
     psi = 0.021*[#   3]+0.021*[#   4]+0.021*[#   6]
    |psi|^2 = 0.063
==== e(   7) =    22.03533 eV ==== 
     psi = 0.412*[#   1]+0.014*[#   3]+0.014*[#   4]+0.014*[#   6]
    |psi|^2 = 0.456
==== e(   8) =    23.86100 eV ==== 
     psi = 0.006*[#   3]+0.006*[#   4]+0.006*[#   6]
    |psi|^2 = 0.018

 k =   0.0000000000  0.0000000000  0.5833333333
==== e(   1) =     9.85417 eV ==== 
     psi = 0.441*[#   1]+0.277*[#   2]+0.277*[#   5]
    |psi|^2 = 0.994
==== e(   2) =    11.86450 eV ==== 
     psi = 0.497*[#   2]+0.497*[#   5]
    |psi|^2 = 0.994
==== e(   3) =    13.50894 eV ==== 
     psi = 0.331*[#   3]+0.331*[#   4]+0.331*[#   6]
    |psi|^2 = 0.994
==== e(   4) =    13.50894 eV ==== 
     psi = 0.331*[#   3]+0.331*[#   4]+0.331*[#   6]
    |psi|^2 = 0.994
==== e(   5) =    14.45611 eV ==== 
     psi = 0.333*[#   3]+0.333*[#   4]+0.333*[#   6]
    |psi|^2 = 1.000
==== e(   6) =    16.20093 eV ==== 
     psi = 0.550*[#   1]+0.223*[#   2]+0.223*[#   5]
    |psi|^2 = 0.996
==== e(   7) =    28.44451 eV ==== 
     psi = 0.002*[#   3]+0.002*[#   4]+0.002*[#   6]
    |psi|^2 = 0.006
==== e(   8) =    28.44451 eV ==== 
     psi = 0.002*[#   3]+0.002*[#   4]+0.002*[#   6]
    |psi|^2 = 0.006

 k =   0.0000000000 -0.0833333333  0.6666666667
==== e(   1) =    10.40997 eV ==== 
     psi = 0.383*[#   2]+0.383*[#   5]+0.201*[#   1]+0.007*[#   3]+0.007*[#   4]
          +0.007*[#   6]
    |psi|^2 = 0.989
==== e(   2) =    11.32375 eV ==== 
     psi = 0.482*[#   2]+0.482*[#   5]+0.009*[#   3]+0.009*[#   4]+0.009*[#   6]
          
    |psi|^2 = 0.992
==== e(   3) =    13.65080 eV ==== 
     psi = 0.331*[#   3]+0.331*[#   4]+0.331*[#   6]
    |psi|^2 = 0.993
==== e(   4) =    13.88343 eV ==== 
     psi = 0.309*[#   3]+0.309*[#   4]+0.309*[#   6]+0.031*[#   2]+0.031*[#   5]
          +0.004*[#   1]
    |psi|^2 = 0.992
==== e(   5) =    14.99912 eV ==== 
     psi = 0.333*[#   3]+0.333*[#   4]+0.333*[#   6]
    |psi|^2 = 0.999
==== e(   6) =    17.32807 eV ==== 
     psi = 0.741*[#   1]+0.100*[#   2]+0.100*[#   5]+0.004*[#   3]+0.004*[#   4]
          +0.004*[#   6]
    |psi|^2 = 0.954
==== e(   7) =    25.57047 eV ==== 
     psi = 0.032*[#   1]+0.004*[#   3]+0.004*[#   4]+0.004*[#   6]
    |psi|^2 = 0.045
==== e(   8) =    26.92460 eV ==== 
     psi = 0.002*[#   3]+0.002*[#   4]+0.002*[#   6]
    |psi|^2 = 0.007

 k =   0.0000000000 -0.1666666667  0.7500000000
==== e(   1) =    10.69600 eV ==== 
     psi = 0.433*[#   2]+0.433*[#   5]+0.051*[#   1]+0.023*[#   3]+0.023*[#   4]
          +0.023*[#   6]
    |psi|^2 = 0.986
==== e(   2) =    10.98397 eV ==== 
     psi = 0.476*[#   2]+0.476*[#   5]+0.007*[#   3]+0.007*[#   4]+0.007*[#   6]
          +0.001*[#   1]
    |psi|^2 = 0.973
==== e(   3) =    13.62962 eV ==== 
     psi = 0.331*[#   3]+0.331*[#   4]+0.331*[#   6]
    |psi|^2 = 0.993
==== e(   4) =    14.05218 eV ==== 
     psi = 0.286*[#   3]+0.286*[#   4]+0.286*[#   6]+0.054*[#   2]+0.054*[#   5]
          +0.029*[#   1]
    |psi|^2 = 0.996
==== e(   5) =    15.49279 eV ==== 
     psi = 0.333*[#   3]+0.333*[#   4]+0.333*[#   6]
    |psi|^2 = 0.999
==== e(   6) =    19.21876 eV ==== 
     psi = 0.438*[#   1]+0.031*[#   2]+0.031*[#   5]+0.006*[#   3]+0.006*[#   4]
          +0.006*[#   6]
    |psi|^2 = 0.516
==== e(   7) =    22.59518 eV ==== 
     psi = 0.430*[#   1]+0.011*[#   3]+0.011*[#   4]+0.011*[#   6]+0.004*[#   2]
          +0.004*[#   5]
    |psi|^2 = 0.471
==== e(   8) =    26.03558 eV ==== 
     psi = 0.002*[#   3]+0.002*[#   4]+0.002*[#   6]
    |psi|^2 = 0.007

 k =  -0.0833333333 -0.0833333333  0.7500000000
==== e(   1) =    10.61562 eV ==== 
     psi = 0.453*[#   2]+0.453*[#   5]+0.061*[#   1]+0.005*[#   3]+0.005*[#   4]
          +0.005*[#   6]
    |psi|^2 = 0.983
==== e(   2) =    10.92391 eV ==== 
     psi = 0.483*[#   2]+0.483*[#   5]+0.008*[#   3]+0.008*[#   4]+0.008*[#   6]
          
    |psi|^2 = 0.991
==== e(   3) =    13.73460 eV ==== 
     psi = 0.322*[#   3]+0.322*[#   4]+0.322*[#   6]+0.013*[#   1]+0.007*[#   2]
          +0.007*[#   5]
    |psi|^2 = 0.993
==== e(   4) =    14.46475 eV ==== 
     psi = 0.321*[#   3]+0.321*[#   4]+0.321*[#   6]+0.014*[#   2]+0.014*[#   5]
          
    |psi|^2 = 0.990
==== e(   5) =    15.26204 eV ==== 
     psi = 0.326*[#   3]+0.326*[#   4]+0.326*[#   6]+0.007*[#   1]+0.006*[#   2]
          +0.006*[#   5]
    |psi|^2 = 0.999
==== e(   6) =    19.03569 eV ==== 
     psi = 0.701*[#   1]+0.033*[#   2]+0.033*[#   5]+0.007*[#   3]+0.007*[#   4]
          +0.007*[#   6]
    |psi|^2 = 0.790
==== e(   7) =    24.32559 eV ==== 
     psi = 0.004*[#   3]+0.004*[#   4]+0.004*[#   6]+0.002*[#   2]+0.002*[#   5]
          
    |psi|^2 = 0.015
==== e(   8) =    24.56934 eV ==== 
     psi = 0.169*[#   1]+0.005*[#   3]+0.005*[#   4]+0.005*[#   6]
    |psi|^2 = 0.184

 k =  -0.0833333333  0.8333333333 -0.1666666667
==== e(   1) =    10.71515 eV ==== 
     psi = 0.474*[#   2]+0.474*[#   5]+0.011*[#   3]+0.011*[#   4]+0.011*[#   6]
          +0.008*[#   1]
    |psi|^2 = 0.990
==== e(   2) =    10.73287 eV ==== 
     psi = 0.483*[#   2]+0.483*[#   5]+0.003*[#   3]+0.003*[#   4]+0.003*[#   6]
          
    |psi|^2 = 0.975
==== e(   3) =    13.70498 eV ==== 
     psi = 0.322*[#   3]+0.322*[#   4]+0.322*[#   6]+0.024*[#   1]+0.003*[#   2]
          +0.003*[#   5]
    |psi|^2 = 0.997
==== e(   4) =    14.73717 eV ==== 
     psi = 0.317*[#   3]+0.317*[#   4]+0.317*[#   6]+0.017*[#   2]+0.017*[#   5]
          +0.007*[#   1]
    |psi|^2 = 0.992
==== e(   5) =    15.38120 eV ==== 
     psi = 0.328*[#   3]+0.328*[#   4]+0.328*[#   6]+0.006*[#   2]+0.006*[#   5]
          
    |psi|^2 = 0.995
==== e(   6) =    20.96510 eV ==== 
     psi = 0.010*[#   2]+0.010*[#   5]+0.002*[#   3]+0.002*[#   4]+0.002*[#   6]
          
    |psi|^2 = 0.027
==== e(   7) =    22.09269 eV ==== 
     psi = 0.685*[#   1]+0.011*[#   3]+0.011*[#   4]+0.011*[#   6]+0.004*[#   2]
          +0.004*[#   5]
    |psi|^2 = 0.727
==== e(   8) =    24.03557 eV ==== 
     psi = 0.201*[#   1]+0.005*[#   3]+0.005*[#   4]+0.005*[#   6]
    |psi|^2 = 0.216

 k =   0.0000000000  0.0000000000  0.7500000000
==== e(   1) =    10.47526 eV ==== 
     psi = 0.458*[#   2]+0.458*[#   5]+0.074*[#   1]
    |psi|^2 = 0.991
==== e(   2) =    10.87538 eV ==== 
     psi = 0.497*[#   2]+0.497*[#   5]
    |psi|^2 = 0.995
==== e(   3) =    14.40479 eV ==== 
     psi = 0.330*[#   3]+0.330*[#   4]+0.330*[#   6]
    |psi|^2 = 0.990
==== e(   4) =    14.40479 eV ==== 
     psi = 0.330*[#   3]+0.330*[#   4]+0.330*[#   6]
    |psi|^2 = 0.990
==== e(   5) =    15.05767 eV ==== 
     psi = 0.333*[#   3]+0.333*[#   4]+0.333*[#   6]
    |psi|^2 = 1.000
==== e(   6) =    18.65551 eV ==== 
     psi = 0.853*[#   1]+0.041*[#   2]+0.041*[#   5]
    |psi|^2 = 0.934
==== e(   7) =    25.27091 eV ==== 
     psi = 0.003*[#   3]+0.003*[#   4]+0.003*[#   6]
    |psi|^2 = 0.010
==== e(   8) =    25.27091 eV ==== 
     psi = 0.003*[#   3]+0.003*[#   4]+0.003*[#   6]
    |psi|^2 = 0.010

 k =   0.0000000000 -0.0833333333  0.8333333333
==== e(   1) =    10.47458 eV ==== 
     psi = 0.486*[#   2]+0.486*[#   5]+0.014*[#   1]
    |psi|^2 = 0.989
==== e(   2) =    10.57497 eV ==== 
     psi = 0.494*[#   2]+0.494*[#   5]+0.002*[#   3]+0.002*[#   4]+0.002*[#   6]
          
    |psi|^2 = 0.993
==== e(   3) =    14.61399 eV ==== 
     psi = 0.330*[#   3]+0.330*[#   4]+0.330*[#   6]
    |psi|^2 = 0.991
==== e(   4) =    14.75340 eV ==== 
     psi = 0.324*[#   3]+0.324*[#   4]+0.324*[#   6]+0.014*[#   1]+0.005*[#   2]
          +0.005*[#   5]
    |psi|^2 = 0.994
==== e(   5) =    15.42520 eV ==== 
     psi = 0.333*[#   3]+0.333*[#   4]+0.333*[#   6]
    |psi|^2 = 0.999
==== e(   6) =    20.61900 eV ==== 
     psi = 0.582*[#   1]+0.011*[#   2]+0.011*[#   5]+0.002*[#   3]+0.002*[#   4]
          +0.002*[#   6]
    |psi|^2 = 0.609
==== e(   7) =    23.18786 eV ==== 
     psi = 0.230*[#   1]+0.005*[#   3]+0.005*[#   4]+0.005*[#   6]+0.001*[#   2]
          +0.001*[#   5]
    |psi|^2 = 0.247
==== e(   8) =    24.27831 eV ==== 
     psi = 0.003*[#   3]+0.003*[#   4]+0.003*[#   6]
    |psi|^2 = 0.009

 k =  -0.0833333333  0.9166666667 -0.0833333333
==== e(   1) =    10.42690 eV ==== 
     psi = 0.495*[#   2]+0.495*[#   5]
    |psi|^2 = 0.991
==== e(   2) =    10.42690 eV ==== 
     psi = 0.495*[#   2]+0.495*[#   5]
    |psi|^2 = 0.991
==== e(   3) =    14.70413 eV ==== 
     psi = 0.328*[#   3]+0.328*[#   4]+0.328*[#   6]+0.013*[#   1]
    |psi|^2 = 0.996
==== e(   4) =    15.32242 eV ==== 
     psi = 0.331*[#   3]+0.331*[#   4]+0.331*[#   6]+0.001*[#   2]+0.001*[#   5]
          
    |psi|^2 = 0.996
==== e(   5) =    15.32242 eV ==== 
     psi = 0.331*[#   3]+0.331*[#   4]+0.331*[#   6]+0.001*[#   2]+0.001*[#   5]
          
    |psi|^2 = 0.996
==== e(   6) =    22.46866 eV ==== 
     psi = 0.002*[#   2]+0.002*[#   5]+0.001*[#   3]+0.001*[#   4]+0.001*[#   6]
          
    |psi|^2 = 0.009
==== e(   7) =    22.46866 eV ==== 
     psi = 0.002*[#   2]+0.002*[#   5]+0.001*[#   3]+0.001*[#   4]+0.001*[#   6]
          
    |psi|^2 = 0.009
==== e(   8) =    22.95941 eV ==== 
     psi = 0.731*[#   1]+0.005*[#   3]+0.005*[#   4]+0.005*[#   6]
    |psi|^2 = 0.747

 k =   0.0000000000  0.0000000000  0.9166666667
==== e(   1) =    10.29940 eV ==== 
     psi = 0.496*[#   2]+0.496*[#   5]+0.002*[#   1]
    |psi|^2 = 0.994
==== e(   2) =    10.32536 eV ==== 
     psi = 0.498*[#   2]+0.498*[#   5]
    |psi|^2 = 0.995
==== e(   3) =    15.30029 eV ==== 
     psi = 0.332*[#   3]+0.332*[#   4]+0.332*[#   6]
    |psi|^2 = 0.996
==== e(   4) =    15.30029 eV ==== 
     psi = 0.332*[#   3]+0.332*[#   4]+0.332*[#   6]
    |psi|^2 = 0.996
==== e(   5) =    15.41155 eV ==== 
     psi = 0.333*[#   3]+0.333*[#   4]+0.333*[#   6]
    |psi|^2 = 1.000
==== e(   6) =    22.08039 eV ==== 
     psi = 0.440*[#   1]+0.002*[#   2]+0.002*[#   5]
    |psi|^2 = 0.444
==== e(   7) =    23.19113 eV ==== 
     psi = 0.001*[#   3]+0.001*[#   4]+0.001*[#   6]
    |psi|^2 = 0.004
==== e(   8) =    23.19113 eV ==== 
     psi = 0.001*[#   3]+0.001*[#   4]+0.001*[#   6]
    |psi|^2 = 0.004

Lowdin Charges: 

     Atom #   1: total charge =   7.8895, s =  0.8324, p =  0.0000, d =  7.0571, 
                 spin up      =   5.1301, s =  0.3805, 
                 spin up      =   5.1301, p =  0.0000, pz=  0.0000, px=  0.0000, py=  0.0000, 
                 spin up      =   5.1301, d =  4.7495, dz2=  0.9770, dxz=  0.9318, dyz=  0.9318, dx2-y2=  0.9770, dxy=  0.9318, 
                 spin down    =   2.7594, s =  0.4519, 
                 spin down    =   2.7594, p =  0.0000, pz=  0.0000, px=  0.0000, py=  0.0000, 
                 spin down    =   2.7594, d =  2.3075, dz2=  0.3518, dxz=  0.5346, dyz=  0.5346, dx2-y2=  0.3518, dxy=  0.5346, 
                 polarization =   2.3707, s = -0.0713, p =  0.0000, d =  2.4420, 
     Spilling Parameter:   0.0138

     PROJWFC      :      1.08s CPU      1.19s WALL


   This run was terminated on:  10:56:16  17Apr2025            

=------------------------------------------------------------------------------=
   JOB DONE.
=------------------------------------------------------------------------------=
