### Running on host: ASUS

     Program PWSCF v.7.4 starts on 17Apr2025 at 10:55:58 

     This program is part of the open-source Quantum ESPRESSO suite
     for quantum simulation of materials; please cite
         "P. Giannozzi et al., J. Phys.:Condens. Matter 21 395502 (2009);
         "P. Giannozzi et al., J. Phys.:Condens. Matter 29 465901 (2017);
         "P. Giannozzi et al., J. Chem. Phys. 152 154105 (2020);
          URL http://www.quantum-espresso.org", 
     in publications or presentations arising from this work. More details at
     http://www.quantum-espresso.org/quote

     Parallel version (MPI), running on     1 processors

     MPI processes distributed on     1 nodes
     3006 MiB available memory on the printing compute node when the environment starts

     Reading input from pw.Fe.nscf.in

     Current dimensions of program PWSCF are:
     Max number of different atomic species (ntypx) = 10
     Max number of k-points (npk) =  40000
     Max angular momentum in pseudopotentials (lmaxx) =  4
     file Fe.pbe-nd-rrkjus.UPF: wavefunction(s)  4S renormalized

     Atomic positions and unit cell read from directory:
     ./output/fe.save/


     Subspace diagonalization in iterative solution of the eigenvalue problem:
     a serial algorithm will be used


     G-vector sticks info
     --------------------
     sticks:   dense  smooth     PW     G-vecs:    dense   smooth      PW
     Sum         657     333    103                10761     3805     683

     Using Slab Decomposition



     bravais-lattice index     =            3
     lattice parameter (alat)  =       5.4200  a.u.
     unit-cell volume          =      79.6100 (a.u.)^3
     number of atoms/cell      =            1
     number of atomic types    =            1
     number of electrons       =         8.00
     number of Kohn-Sham states=            8
     kinetic-energy cutoff     =      50.0000  Ry
     charge density cutoff     =     400.0000  Ry
     Exchange-correlation=  SLA  PW   PBE  PBE
                           (   1   4   3   4   0   0   0)

     celldm(1)=   5.420000  celldm(2)=   0.000000  celldm(3)=   0.000000
     celldm(4)=   0.000000  celldm(5)=   0.000000  celldm(6)=   0.000000

     crystal axes: (cart. coord. in units of alat)
               a(1) = (   0.500000   0.500000   0.500000 )  
               a(2) = (  -0.500000   0.500000   0.500000 )  
               a(3) = (  -0.500000  -0.500000   0.500000 )  

     reciprocal axes: (cart. coord. in units 2 pi/alat)
               b(1) = (  1.000000  0.000000  1.000000 )  
               b(2) = ( -1.000000  1.000000  0.000000 )  
               b(3) = (  0.000000 -1.000000  1.000000 )  


     PseudoPot. # 1 for Fe read from file:
     ../../SOURCE/q-e-qe-7.4/pseudo/Fe.pbe-nd-rrkjus.UPF
     MD5 check sum: 398036227a04b607635f6f5e8dfd8242
     Pseudo is Ultrasoft + core correction, Zval =  8.0
     Generated by new atomic code, or converted to UPF format
     Using radial grid of  957 points,  6 beta functions with: 
                l(1) =   0
                l(2) =   0
                l(3) =   1
                l(4) =   1
                l(5) =   2
                l(6) =   2
     Q(r) pseudized with 0 coefficients 


     atomic species   valence    mass     pseudopotential
     Fe                8.00     1.00000     Fe( 1.00)

     Starting magnetic structure 
     atomic species   magnetization
     Fe              0.600

     48 Sym. Ops., with inversion, found


                                    s                        frac. trans.

      isym =  1     identity                                     

 cryst.   s( 1) = (     1          0          0      )
                  (     0          1          0      )
                  (     0          0          1      )

 cart.    s( 1) = (  1.0000000  0.0000000  0.0000000 )
                  (  0.0000000  1.0000000  0.0000000 )
                  (  0.0000000  0.0000000  1.0000000 )


      isym =  2     180 deg rotation - cart. axis [0,0,1]        

 cryst.   s( 2) = (     0          0          1      )
                  (     1         -1          1      )
                  (     1          0          0      )

 cart.    s( 2) = ( -1.0000000  0.0000000  0.0000000 )
                  (  0.0000000 -1.0000000  0.0000000 )
                  (  0.0000000  0.0000000  1.0000000 )


      isym =  3     180 deg rotation - cart. axis [0,1,0]        

 cryst.   s( 3) = (    -1          1         -1      )
                  (     0          0         -1      )
                  (     0         -1          0      )

 cart.    s( 3) = ( -1.0000000  0.0000000  0.0000000 )
                  (  0.0000000  1.0000000  0.0000000 )
                  (  0.0000000  0.0000000 -1.0000000 )


      isym =  4     180 deg rotation - cart. axis [1,0,0]        

 cryst.   s( 4) = (     0         -1          0      )
                  (    -1          0          0      )
                  (    -1          1         -1      )

 cart.    s( 4) = (  1.0000000  0.0000000  0.0000000 )
                  (  0.0000000 -1.0000000  0.0000000 )
                  (  0.0000000  0.0000000 -1.0000000 )


      isym =  5     180 deg rotation - cart. axis [1,1,0]        

 cryst.   s( 5) = (     0          0         -1      )
                  (     0         -1          0      )
                  (    -1          0          0      )

 cart.    s( 5) = (  0.0000000  1.0000000  0.0000000 )
                  (  1.0000000  0.0000000  0.0000000 )
                  (  0.0000000  0.0000000 -1.0000000 )


      isym =  6     180 deg rotation - cart. axis [1,-1,0]       

 cryst.   s( 6) = (    -1          0          0      )
                  (    -1          1         -1      )
                  (     0          0         -1      )

 cart.    s( 6) = (  0.0000000 -1.0000000  0.0000000 )
                  ( -1.0000000  0.0000000  0.0000000 )
                  (  0.0000000  0.0000000 -1.0000000 )


      isym =  7      90 deg rotation - cart. axis [0,0,-1]       

 cryst.   s( 7) = (     1         -1          1      )
                  (     1          0          0      )
                  (     0          1          0      )

 cart.    s( 7) = (  0.0000000  1.0000000  0.0000000 )
                  ( -1.0000000  0.0000000  0.0000000 )
                  (  0.0000000  0.0000000  1.0000000 )


      isym =  8      90 deg rotation - cart. axis [0,0,1]        

 cryst.   s( 8) = (     0          1          0      )
                  (     0          0          1      )
                  (     1         -1          1      )

 cart.    s( 8) = (  0.0000000 -1.0000000  0.0000000 )
                  (  1.0000000  0.0000000  0.0000000 )
                  (  0.0000000  0.0000000  1.0000000 )


      isym =  9     180 deg rotation - cart. axis [1,0,1]        

 cryst.   s( 9) = (     1         -1          1      )
                  (     0         -1          0      )
                  (     0          0         -1      )

 cart.    s( 9) = (  0.0000000  0.0000000  1.0000000 )
                  (  0.0000000 -1.0000000  0.0000000 )
                  (  1.0000000  0.0000000  0.0000000 )


      isym = 10     180 deg rotation - cart. axis [-1,0,1]       

 cryst.   s(10) = (    -1          0          0      )
                  (     0          0          1      )
                  (     0          1          0      )

 cart.    s(10) = (  0.0000000  0.0000000 -1.0000000 )
                  (  0.0000000 -1.0000000  0.0000000 )
                  ( -1.0000000  0.0000000  0.0000000 )


      isym = 11      90 deg rotation - cart. axis [0,1,0]        

 cryst.   s(11) = (     0          0         -1      )
                  (     1          0          0      )
                  (     1         -1          1      )

 cart.    s(11) = (  0.0000000  0.0000000  1.0000000 )
                  (  0.0000000  1.0000000  0.0000000 )
                  ( -1.0000000  0.0000000  0.0000000 )


      isym = 12      90 deg rotation - cart. axis [0,-1,0]       

 cryst.   s(12) = (     0          1          0      )
                  (    -1          1         -1      )
                  (    -1          0          0      )

 cart.    s(12) = (  0.0000000  0.0000000 -1.0000000 )
                  (  0.0000000  1.0000000  0.0000000 )
                  (  1.0000000  0.0000000  0.0000000 )


      isym = 13     180 deg rotation - cart. axis [0,1,1]        

 cryst.   s(13) = (     0          1          0      )
                  (     1          0          0      )
                  (     0          0         -1      )

 cart.    s(13) = ( -1.0000000  0.0000000  0.0000000 )
                  (  0.0000000  0.0000000  1.0000000 )
                  (  0.0000000  1.0000000  0.0000000 )


      isym = 14     180 deg rotation - cart. axis [0,1,-1]       

 cryst.   s(14) = (    -1          0          0      )
                  (     0         -1          0      )
                  (     1         -1          1      )

 cart.    s(14) = ( -1.0000000  0.0000000  0.0000000 )
                  (  0.0000000  0.0000000 -1.0000000 )
                  (  0.0000000 -1.0000000  0.0000000 )


      isym = 15      90 deg rotation - cart. axis [-1,0,0]       

 cryst.   s(15) = (     0          0         -1      )
                  (    -1          1         -1      )
                  (     0          1          0      )

 cart.    s(15) = (  1.0000000  0.0000000  0.0000000 )
                  (  0.0000000  0.0000000  1.0000000 )
                  (  0.0000000 -1.0000000  0.0000000 )


      isym = 16      90 deg rotation - cart. axis [1,0,0]        

 cryst.   s(16) = (     1         -1          1      )
                  (     0          0          1      )
                  (    -1          0          0      )

 cart.    s(16) = (  1.0000000  0.0000000  0.0000000 )
                  (  0.0000000  0.0000000 -1.0000000 )
                  (  0.0000000  1.0000000  0.0000000 )


      isym = 17     120 deg rotation - cart. axis [-1,-1,-1]     

 cryst.   s(17) = (     1          0          0      )
                  (     0          0         -1      )
                  (    -1          1         -1      )

 cart.    s(17) = (  0.0000000  1.0000000  0.0000000 )
                  (  0.0000000  0.0000000  1.0000000 )
                  (  1.0000000  0.0000000  0.0000000 )


      isym = 18     120 deg rotation - cart. axis [-1,1,1]       

 cryst.   s(18) = (    -1          1         -1      )
                  (     0          1          0      )
                  (     1          0          0      )

 cart.    s(18) = (  0.0000000 -1.0000000  0.0000000 )
                  (  0.0000000  0.0000000  1.0000000 )
                  ( -1.0000000  0.0000000  0.0000000 )


      isym = 19     120 deg rotation - cart. axis [1,1,-1]       

 cryst.   s(19) = (     0         -1          0      )
                  (     1         -1          1      )
                  (     0          0          1      )

 cart.    s(19) = (  0.0000000  1.0000000  0.0000000 )
                  (  0.0000000  0.0000000 -1.0000000 )
                  ( -1.0000000  0.0000000  0.0000000 )


      isym = 20     120 deg rotation - cart. axis [1,-1,1]       

 cryst.   s(20) = (     0          0          1      )
                  (    -1          0          0      )
                  (     0         -1          0      )

 cart.    s(20) = (  0.0000000 -1.0000000  0.0000000 )
                  (  0.0000000  0.0000000 -1.0000000 )
                  (  1.0000000  0.0000000  0.0000000 )


      isym = 21     120 deg rotation - cart. axis [1,1,1]        

 cryst.   s(21) = (     1          0          0      )
                  (     1         -1          1      )
                  (     0         -1          0      )

 cart.    s(21) = (  0.0000000  0.0000000  1.0000000 )
                  (  1.0000000  0.0000000  0.0000000 )
                  (  0.0000000  1.0000000  0.0000000 )


      isym = 22     120 deg rotation - cart. axis [-1,1,-1]      

 cryst.   s(22) = (     0         -1          0      )
                  (     0          0         -1      )
                  (     1          0          0      )

 cart.    s(22) = (  0.0000000  0.0000000  1.0000000 )
                  ( -1.0000000  0.0000000  0.0000000 )
                  (  0.0000000 -1.0000000  0.0000000 )


      isym = 23     120 deg rotation - cart. axis [1,-1,-1]      

 cryst.   s(23) = (     0          0          1      )
                  (     0          1          0      )
                  (    -1          1         -1      )

 cart.    s(23) = (  0.0000000  0.0000000 -1.0000000 )
                  ( -1.0000000  0.0000000  0.0000000 )
                  (  0.0000000  1.0000000  0.0000000 )


      isym = 24     120 deg rotation - cart. axis [-1,-1,1]      

 cryst.   s(24) = (    -1          1         -1      )
                  (    -1          0          0      )
                  (     0          0          1      )

 cart.    s(24) = (  0.0000000  0.0000000 -1.0000000 )
                  (  1.0000000  0.0000000  0.0000000 )
                  (  0.0000000 -1.0000000  0.0000000 )


      isym = 25     inversion                                    

 cryst.   s(25) = (    -1          0          0      )
                  (     0         -1          0      )
                  (     0          0         -1      )

 cart.    s(25) = ( -1.0000000  0.0000000  0.0000000 )
                  (  0.0000000 -1.0000000  0.0000000 )
                  (  0.0000000  0.0000000 -1.0000000 )


      isym = 26     inv. 180 deg rotation - cart. axis [0,0,1]   

 cryst.   s(26) = (     0          0         -1      )
                  (    -1          1         -1      )
                  (    -1          0          0      )

 cart.    s(26) = (  1.0000000  0.0000000  0.0000000 )
                  (  0.0000000  1.0000000  0.0000000 )
                  (  0.0000000  0.0000000 -1.0000000 )


      isym = 27     inv. 180 deg rotation - cart. axis [0,1,0]   

 cryst.   s(27) = (     1         -1          1      )
                  (     0          0          1      )
                  (     0          1          0      )

 cart.    s(27) = (  1.0000000  0.0000000  0.0000000 )
                  (  0.0000000 -1.0000000  0.0000000 )
                  (  0.0000000  0.0000000  1.0000000 )


      isym = 28     inv. 180 deg rotation - cart. axis [1,0,0]   

 cryst.   s(28) = (     0          1          0      )
                  (     1          0          0      )
                  (     1         -1          1      )

 cart.    s(28) = ( -1.0000000  0.0000000  0.0000000 )
                  (  0.0000000  1.0000000  0.0000000 )
                  (  0.0000000  0.0000000  1.0000000 )


      isym = 29     inv. 180 deg rotation - cart. axis [1,1,0]   

 cryst.   s(29) = (     0          0          1      )
                  (     0          1          0      )
                  (     1          0          0      )

 cart.    s(29) = (  0.0000000 -1.0000000  0.0000000 )
                  ( -1.0000000  0.0000000  0.0000000 )
                  (  0.0000000  0.0000000  1.0000000 )


      isym = 30     inv. 180 deg rotation - cart. axis [1,-1,0]  

 cryst.   s(30) = (     1          0          0      )
                  (     1         -1          1      )
                  (     0          0          1      )

 cart.    s(30) = (  0.0000000  1.0000000  0.0000000 )
                  (  1.0000000  0.0000000  0.0000000 )
                  (  0.0000000  0.0000000  1.0000000 )


      isym = 31     inv.  90 deg rotation - cart. axis [0,0,-1]  

 cryst.   s(31) = (    -1          1         -1      )
                  (    -1          0          0      )
                  (     0         -1          0      )

 cart.    s(31) = (  0.0000000 -1.0000000  0.0000000 )
                  (  1.0000000  0.0000000  0.0000000 )
                  (  0.0000000  0.0000000 -1.0000000 )


      isym = 32     inv.  90 deg rotation - cart. axis [0,0,1]   

 cryst.   s(32) = (     0         -1          0      )
                  (     0          0         -1      )
                  (    -1          1         -1      )

 cart.    s(32) = (  0.0000000  1.0000000  0.0000000 )
                  ( -1.0000000  0.0000000  0.0000000 )
                  (  0.0000000  0.0000000 -1.0000000 )


      isym = 33     inv. 180 deg rotation - cart. axis [1,0,1]   

 cryst.   s(33) = (    -1          1         -1      )
                  (     0          1          0      )
                  (     0          0          1      )

 cart.    s(33) = (  0.0000000  0.0000000 -1.0000000 )
                  (  0.0000000  1.0000000  0.0000000 )
                  ( -1.0000000  0.0000000  0.0000000 )


      isym = 34     inv. 180 deg rotation - cart. axis [-1,0,1]  

 cryst.   s(34) = (     1          0          0      )
                  (     0          0         -1      )
                  (     0         -1          0      )

 cart.    s(34) = (  0.0000000  0.0000000  1.0000000 )
                  (  0.0000000  1.0000000  0.0000000 )
                  (  1.0000000  0.0000000  0.0000000 )


      isym = 35     inv.  90 deg rotation - cart. axis [0,1,0]   

 cryst.   s(35) = (     0          0          1      )
                  (    -1          0          0      )
                  (    -1          1         -1      )

 cart.    s(35) = (  0.0000000  0.0000000 -1.0000000 )
                  (  0.0000000 -1.0000000  0.0000000 )
                  (  1.0000000  0.0000000  0.0000000 )


      isym = 36     inv.  90 deg rotation - cart. axis [0,-1,0]  

 cryst.   s(36) = (     0         -1          0      )
                  (     1         -1          1      )
                  (     1          0          0      )

 cart.    s(36) = (  0.0000000  0.0000000  1.0000000 )
                  (  0.0000000 -1.0000000  0.0000000 )
                  ( -1.0000000  0.0000000  0.0000000 )


      isym = 37     inv. 180 deg rotation - cart. axis [0,1,1]   

 cryst.   s(37) = (     0         -1          0      )
                  (    -1          0          0      )
                  (     0          0          1      )

 cart.    s(37) = (  1.0000000  0.0000000  0.0000000 )
                  (  0.0000000  0.0000000 -1.0000000 )
                  (  0.0000000 -1.0000000  0.0000000 )


      isym = 38     inv. 180 deg rotation - cart. axis [0,1,-1]  

 cryst.   s(38) = (     1          0          0      )
                  (     0          1          0      )
                  (    -1          1         -1      )

 cart.    s(38) = (  1.0000000  0.0000000  0.0000000 )
                  (  0.0000000  0.0000000  1.0000000 )
                  (  0.0000000  1.0000000  0.0000000 )


      isym = 39     inv.  90 deg rotation - cart. axis [-1,0,0]  

 cryst.   s(39) = (     0          0          1      )
                  (     1         -1          1      )
                  (     0         -1          0      )

 cart.    s(39) = ( -1.0000000  0.0000000  0.0000000 )
                  (  0.0000000  0.0000000 -1.0000000 )
                  (  0.0000000  1.0000000  0.0000000 )


      isym = 40     inv.  90 deg rotation - cart. axis [1,0,0]   

 cryst.   s(40) = (    -1          1         -1      )
                  (     0          0         -1      )
                  (     1          0          0      )

 cart.    s(40) = ( -1.0000000  0.0000000  0.0000000 )
                  (  0.0000000  0.0000000  1.0000000 )
                  (  0.0000000 -1.0000000  0.0000000 )


      isym = 41     inv. 120 deg rotation - cart. axis [-1,-1,-1]

 cryst.   s(41) = (    -1          0          0      )
                  (     0          0          1      )
                  (     1         -1          1      )

 cart.    s(41) = (  0.0000000 -1.0000000  0.0000000 )
                  (  0.0000000  0.0000000 -1.0000000 )
                  ( -1.0000000  0.0000000  0.0000000 )


      isym = 42     inv. 120 deg rotation - cart. axis [-1,1,1]  

 cryst.   s(42) = (     1         -1          1      )
                  (     0         -1          0      )
                  (    -1          0          0      )

 cart.    s(42) = (  0.0000000  1.0000000  0.0000000 )
                  (  0.0000000  0.0000000 -1.0000000 )
                  (  1.0000000  0.0000000  0.0000000 )


      isym = 43     inv. 120 deg rotation - cart. axis [1,1,-1]  

 cryst.   s(43) = (     0          1          0      )
                  (    -1          1         -1      )
                  (     0          0         -1      )

 cart.    s(43) = (  0.0000000 -1.0000000  0.0000000 )
                  (  0.0000000  0.0000000  1.0000000 )
                  (  1.0000000  0.0000000  0.0000000 )


      isym = 44     inv. 120 deg rotation - cart. axis [1,-1,1]  

 cryst.   s(44) = (     0          0         -1      )
                  (     1          0          0      )
                  (     0          1          0      )

 cart.    s(44) = (  0.0000000  1.0000000  0.0000000 )
                  (  0.0000000  0.0000000  1.0000000 )
                  ( -1.0000000  0.0000000  0.0000000 )


      isym = 45     inv. 120 deg rotation - cart. axis [1,1,1]   

 cryst.   s(45) = (    -1          0          0      )
                  (    -1          1         -1      )
                  (     0          1          0      )

 cart.    s(45) = (  0.0000000  0.0000000 -1.0000000 )
                  ( -1.0000000  0.0000000  0.0000000 )
                  (  0.0000000 -1.0000000  0.0000000 )


      isym = 46     inv. 120 deg rotation - cart. axis [-1,1,-1] 

 cryst.   s(46) = (     0          1          0      )
                  (     0          0          1      )
                  (    -1          0          0      )

 cart.    s(46) = (  0.0000000  0.0000000 -1.0000000 )
                  (  1.0000000  0.0000000  0.0000000 )
                  (  0.0000000  1.0000000  0.0000000 )


      isym = 47     inv. 120 deg rotation - cart. axis [1,-1,-1] 

 cryst.   s(47) = (     0          0         -1      )
                  (     0         -1          0      )
                  (     1         -1          1      )

 cart.    s(47) = (  0.0000000  0.0000000  1.0000000 )
                  (  1.0000000  0.0000000  0.0000000 )
                  (  0.0000000 -1.0000000  0.0000000 )


      isym = 48     inv. 120 deg rotation - cart. axis [-1,-1,1] 

 cryst.   s(48) = (     1         -1          1      )
                  (     1          0          0      )
                  (     0          0         -1      )

 cart.    s(48) = (  0.0000000  0.0000000  1.0000000 )
                  ( -1.0000000  0.0000000  0.0000000 )
                  (  0.0000000  1.0000000  0.0000000 )


     point group O_h (m-3m) 
     there are 10 classes
     the character table:

       E     8C3   3C2   6C4   6C2'  i     8S6   3s_h  6S4   6s_d 
A_1g   1.00  1.00  1.00  1.00  1.00  1.00  1.00  1.00  1.00  1.00
A_2g   1.00  1.00  1.00 -1.00 -1.00  1.00  1.00  1.00 -1.00 -1.00
E_g    2.00 -1.00  2.00  0.00  0.00  2.00 -1.00  2.00  0.00  0.00
T_1g   3.00  0.00 -1.00  1.00 -1.00  3.00  0.00 -1.00  1.00 -1.00
T_2g   3.00  0.00 -1.00 -1.00  1.00  3.00  0.00 -1.00 -1.00  1.00
A_1u   1.00  1.00  1.00  1.00  1.00 -1.00 -1.00 -1.00 -1.00 -1.00
A_2u   1.00  1.00  1.00 -1.00 -1.00 -1.00 -1.00 -1.00  1.00  1.00
E_u    2.00 -1.00  2.00  0.00  0.00 -2.00  1.00 -2.00  0.00  0.00
T_1u   3.00  0.00 -1.00  1.00 -1.00 -3.00  0.00  1.00 -1.00  1.00
T_2u   3.00  0.00 -1.00 -1.00  1.00 -3.00  0.00  1.00  1.00 -1.00

     the symmetry operations in each class and the name of the first element:

     E        1
          identity                                               
     8C3     17   19   20   18   24   21   22   23
          120 deg rotation - cart. axis [-1,-1,-1]               
     3C2      2    4    3
          180 deg rotation - cart. axis [0,0,1]                  
     6C4      7    8   15   16   12   11
           90 deg rotation - cart. axis [0,0,-1]                 
     6C2'     5    6   14   13   10    9
          180 deg rotation - cart. axis [1,1,0]                  
     i       25
          inversion                                              
     8S6     41   43   44   42   48   45   46   47
          inv. 120 deg rotation - cart. axis [-1,-1,-1]          
     3s_h    26   28   27
          inv. 180 deg rotation - cart. axis [0,0,1]             
     6S4     31   32   39   40   36   35
          inv.  90 deg rotation - cart. axis [0,0,-1]            
     6s_d    29   30   38   37   34   33
          inv. 180 deg rotation - cart. axis [1,1,0]             

   Cartesian axes

     site n.     atom                  positions (alat units)
         1        Fe     tau(   1) = (   0.0000000   0.0000000   0.0000000  )

   Crystallographic axes

     site n.     atom                  positions (cryst. coord.)
         1        Fe     tau(   1) = (  0.0000000  0.0000000  0.0000000  )

     number of k points=    68 (tetrahedron method)
                       cart. coord. in units 2pi/alat
        k(    1) = (   0.0000000   0.0000000   0.0833333), wk =   0.0034722
        k(    2) = (   0.0000000  -0.0833333   0.1666667), wk =   0.0138889
        k(    3) = (   0.0000000  -0.1666667   0.2500000), wk =   0.0138889
        k(    4) = (   0.0000000  -0.2500000   0.3333333), wk =   0.0138889
        k(    5) = (   0.0000000  -0.3333333   0.4166667), wk =   0.0138889
        k(    6) = (   0.0000000  -0.4166667   0.5000000), wk =   0.0138889
        k(    7) = (  -0.0833333   0.0833333   0.0833333), wk =   0.0046296
        k(    8) = (  -0.0833333  -0.0833333   0.2500000), wk =   0.0138889
        k(    9) = (  -0.0833333  -0.1666667   0.3333333), wk =   0.0277778
        k(   10) = (  -0.0833333  -0.2500000   0.4166667), wk =   0.0277778
        k(   11) = (  -0.0833333  -0.3333333   0.5000000), wk =   0.0277778
        k(   12) = (  -0.0833333   0.5833333  -0.4166667), wk =   0.0138889
        k(   13) = (  -0.1666667   0.1666667   0.0833333), wk =   0.0138889
        k(   14) = (  -0.1666667  -0.1666667   0.4166667), wk =   0.0138889
        k(   15) = (  -0.1666667  -0.2500000   0.5000000), wk =   0.0277778
        k(   16) = (  -0.1666667   0.6666667  -0.4166667), wk =   0.0277778
        k(   17) = (  -0.2500000   0.2500000   0.0833333), wk =   0.0138889
        k(   18) = (  -0.2500000   0.1666667   0.1666667), wk =   0.0138889
        k(   19) = (  -0.2500000   0.7500000  -0.4166667), wk =   0.0138889
        k(   20) = (  -0.2500000   0.6666667  -0.3333333), wk =   0.0138889
        k(   21) = (  -0.3333333   0.3333333   0.0833333), wk =   0.0138889
        k(   22) = (  -0.3333333   0.2500000   0.1666667), wk =   0.0277778
        k(   23) = (  -0.4166667   0.4166667   0.0833333), wk =   0.0138889
        k(   24) = (  -0.4166667   0.3333333   0.1666667), wk =   0.0277778
        k(   25) = (  -0.4166667   0.2500000   0.2500000), wk =   0.0138889
        k(   26) = (   0.5000000  -0.5000000   0.0833333), wk =   0.0069444
        k(   27) = (   0.5000000  -0.5833333   0.1666667), wk =   0.0277778
        k(   28) = (   0.5000000  -0.6666667   0.2500000), wk =   0.0277778
        k(   29) = (   0.4166667  -0.5833333   0.2500000), wk =   0.0138889
        k(   30) = (   0.4166667  -0.6666667   0.3333333), wk =   0.0138889
        k(   31) = (   0.0000000   0.0000000   0.2500000), wk =   0.0034722
        k(   32) = (   0.0000000  -0.0833333   0.3333333), wk =   0.0138889
        k(   33) = (   0.0000000  -0.1666667   0.4166667), wk =   0.0138889
        k(   34) = (   0.0000000  -0.2500000   0.5000000), wk =   0.0138889
        k(   35) = (   0.0000000  -0.3333333   0.5833333), wk =   0.0138889
        k(   36) = (  -0.0833333  -0.0833333   0.4166667), wk =   0.0138889
        k(   37) = (  -0.0833333  -0.1666667   0.5000000), wk =   0.0277778
        k(   38) = (  -0.0833333  -0.2500000   0.5833333), wk =   0.0277778
        k(   39) = (  -0.0833333   0.6666667  -0.3333333), wk =   0.0138889
        k(   40) = (  -0.1666667  -0.1666667   0.5833333), wk =   0.0138889
        k(   41) = (  -0.1666667   0.7500000  -0.3333333), wk =   0.0277778
        k(   42) = (  -0.2500000   0.2500000   0.2500000), wk =   0.0046296
        k(   43) = (  -0.2500000   0.7500000  -0.2500000), wk =   0.0046296
        k(   44) = (  -0.3333333   0.3333333   0.2500000), wk =   0.0138889
        k(   45) = (   0.5833333  -0.5833333   0.2500000), wk =   0.0138889
        k(   46) = (   0.5833333  -0.6666667   0.3333333), wk =   0.0138889
        k(   47) = (   0.5000000  -0.5000000   0.2500000), wk =   0.0069444
        k(   48) = (   0.5000000  -0.5833333   0.3333333), wk =   0.0277778
        k(   49) = (   0.4166667  -0.5833333   0.4166667), wk =   0.0046296
        k(   50) = (   0.0000000   0.0000000   0.4166667), wk =   0.0034722
        k(   51) = (   0.0000000  -0.0833333   0.5000000), wk =   0.0138889
        k(   52) = (   0.0000000  -0.1666667   0.5833333), wk =   0.0138889
        k(   53) = (   0.0000000  -0.2500000   0.6666667), wk =   0.0138889
        k(   54) = (  -0.0833333  -0.0833333   0.5833333), wk =   0.0138889
        k(   55) = (  -0.0833333  -0.1666667   0.6666667), wk =   0.0277778
        k(   56) = (  -0.0833333   0.7500000  -0.2500000), wk =   0.0138889
        k(   57) = (  -0.1666667   0.8333333  -0.2500000), wk =   0.0138889
        k(   58) = (   0.5833333  -0.5833333   0.4166667), wk =   0.0046296
        k(   59) = (   0.5000000  -0.5000000   0.4166667), wk =   0.0069444
        k(   60) = (   0.0000000   0.0000000   0.5833333), wk =   0.0034722
        k(   61) = (   0.0000000  -0.0833333   0.6666667), wk =   0.0138889
        k(   62) = (   0.0000000  -0.1666667   0.7500000), wk =   0.0138889
        k(   63) = (  -0.0833333  -0.0833333   0.7500000), wk =   0.0138889
        k(   64) = (  -0.0833333   0.8333333  -0.1666667), wk =   0.0138889
        k(   65) = (   0.0000000   0.0000000   0.7500000), wk =   0.0034722
        k(   66) = (   0.0000000  -0.0833333   0.8333333), wk =   0.0138889
        k(   67) = (  -0.0833333   0.9166667  -0.0833333), wk =   0.0046296
        k(   68) = (   0.0000000   0.0000000   0.9166667), wk =   0.0034722

                       cryst. coord.
        k(    1) = (   0.0416667   0.0416667   0.0416667), wk =   0.0034722
        k(    2) = (   0.0416667   0.0416667   0.1250000), wk =   0.0138889
        k(    3) = (   0.0416667   0.0416667   0.2083333), wk =   0.0138889
        k(    4) = (   0.0416667   0.0416667   0.2916667), wk =   0.0138889
        k(    5) = (   0.0416667   0.0416667   0.3750000), wk =   0.0138889
        k(    6) = (   0.0416667   0.0416667   0.4583333), wk =   0.0138889
        k(    7) = (   0.0416667   0.1250000   0.0416667), wk =   0.0046296
        k(    8) = (   0.0416667   0.1250000   0.2083333), wk =   0.0138889
        k(    9) = (   0.0416667   0.1250000   0.2916667), wk =   0.0277778
        k(   10) = (   0.0416667   0.1250000   0.3750000), wk =   0.0277778
        k(   11) = (   0.0416667   0.1250000   0.4583333), wk =   0.0277778
        k(   12) = (   0.0416667   0.1250000  -0.4583333), wk =   0.0138889
        k(   13) = (   0.0416667   0.2083333   0.0416667), wk =   0.0138889
        k(   14) = (   0.0416667   0.2083333   0.3750000), wk =   0.0138889
        k(   15) = (   0.0416667   0.2083333   0.4583333), wk =   0.0277778
        k(   16) = (   0.0416667   0.2083333  -0.4583333), wk =   0.0277778
        k(   17) = (   0.0416667   0.2916667   0.0416667), wk =   0.0138889
        k(   18) = (   0.0416667   0.2916667   0.1250000), wk =   0.0138889
        k(   19) = (   0.0416667   0.2916667  -0.4583333), wk =   0.0138889
        k(   20) = (   0.0416667   0.2916667  -0.3750000), wk =   0.0138889
        k(   21) = (   0.0416667   0.3750000   0.0416667), wk =   0.0138889
        k(   22) = (   0.0416667   0.3750000   0.1250000), wk =   0.0277778
        k(   23) = (   0.0416667   0.4583333   0.0416667), wk =   0.0138889
        k(   24) = (   0.0416667   0.4583333   0.1250000), wk =   0.0277778
        k(   25) = (   0.0416667   0.4583333   0.2083333), wk =   0.0138889
        k(   26) = (   0.0416667  -0.4583333   0.0416667), wk =   0.0069444
        k(   27) = (   0.0416667  -0.4583333   0.1250000), wk =   0.0277778
        k(   28) = (   0.0416667  -0.4583333   0.2083333), wk =   0.0277778
        k(   29) = (   0.0416667  -0.3750000   0.2083333), wk =   0.0138889
        k(   30) = (   0.0416667  -0.3750000   0.2916667), wk =   0.0138889
        k(   31) = (   0.1250000   0.1250000   0.1250000), wk =   0.0034722
        k(   32) = (   0.1250000   0.1250000   0.2083333), wk =   0.0138889
        k(   33) = (   0.1250000   0.1250000   0.2916667), wk =   0.0138889
        k(   34) = (   0.1250000   0.1250000   0.3750000), wk =   0.0138889
        k(   35) = (   0.1250000   0.1250000   0.4583333), wk =   0.0138889
        k(   36) = (   0.1250000   0.2083333   0.2916667), wk =   0.0138889
        k(   37) = (   0.1250000   0.2083333   0.3750000), wk =   0.0277778
        k(   38) = (   0.1250000   0.2083333   0.4583333), wk =   0.0277778
        k(   39) = (   0.1250000   0.2083333  -0.4583333), wk =   0.0138889
        k(   40) = (   0.1250000   0.2916667   0.4583333), wk =   0.0138889
        k(   41) = (   0.1250000   0.2916667  -0.4583333), wk =   0.0277778
        k(   42) = (   0.1250000   0.3750000   0.1250000), wk =   0.0046296
        k(   43) = (   0.1250000   0.3750000  -0.3750000), wk =   0.0046296
        k(   44) = (   0.1250000   0.4583333   0.1250000), wk =   0.0138889
        k(   45) = (   0.1250000  -0.4583333   0.1250000), wk =   0.0138889
        k(   46) = (   0.1250000  -0.4583333   0.2083333), wk =   0.0138889
        k(   47) = (   0.1250000  -0.3750000   0.1250000), wk =   0.0069444
        k(   48) = (   0.1250000  -0.3750000   0.2083333), wk =   0.0277778
        k(   49) = (   0.1250000  -0.2916667   0.2916667), wk =   0.0046296
        k(   50) = (   0.2083333   0.2083333   0.2083333), wk =   0.0034722
        k(   51) = (   0.2083333   0.2083333   0.2916667), wk =   0.0138889
        k(   52) = (   0.2083333   0.2083333   0.3750000), wk =   0.0138889
        k(   53) = (   0.2083333   0.2083333   0.4583333), wk =   0.0138889
        k(   54) = (   0.2083333   0.2916667   0.3750000), wk =   0.0138889
        k(   55) = (   0.2083333   0.2916667   0.4583333), wk =   0.0277778
        k(   56) = (   0.2083333   0.2916667  -0.4583333), wk =   0.0138889
        k(   57) = (   0.2083333   0.3750000  -0.4583333), wk =   0.0138889
        k(   58) = (   0.2083333  -0.3750000   0.2083333), wk =   0.0046296
        k(   59) = (   0.2083333  -0.2916667   0.2083333), wk =   0.0069444
        k(   60) = (   0.2916667   0.2916667   0.2916667), wk =   0.0034722
        k(   61) = (   0.2916667   0.2916667   0.3750000), wk =   0.0138889
        k(   62) = (   0.2916667   0.2916667   0.4583333), wk =   0.0138889
        k(   63) = (   0.2916667   0.3750000   0.4583333), wk =   0.0138889
        k(   64) = (   0.2916667   0.3750000  -0.4583333), wk =   0.0138889
        k(   65) = (   0.3750000   0.3750000   0.3750000), wk =   0.0034722
        k(   66) = (   0.3750000   0.3750000   0.4583333), wk =   0.0138889
        k(   67) = (   0.3750000   0.4583333  -0.4583333), wk =   0.0046296
        k(   68) = (   0.4583333   0.4583333   0.4583333), wk =   0.0034722

     Dense  grid:    10761 G-vectors     FFT dimensions: (  30,  30,  30)

     Smooth grid:     3805 G-vectors     FFT dimensions: (  24,  24,  24)

     Dynamical RAM for                 wfc:       0.06 MB

     Dynamical RAM for     wfc (w. buffer):       0.06 MB

     Dynamical RAM for           str. fact:       0.16 MB

     Dynamical RAM for           local pot:       0.00 MB

     Dynamical RAM for          nlocal pot:       0.13 MB

     Dynamical RAM for                qrad:       1.61 MB

     Dynamical RAM for          rho,v,vnew:       2.22 MB

     Dynamical RAM for           G-vectors:       0.64 MB

     Dynamical RAM for          h,s,v(r/c):       0.01 MB

     Dynamical RAM for          <psi|beta>:       0.00 MB

     Dynamical RAM for                 psi:       0.12 MB

     Dynamical RAM for                hpsi:       0.12 MB

     Dynamical RAM for                spsi:       0.12 MB

     Dynamical RAM for      wfcinit/wfcrot:       0.12 MB

     Dynamical RAM for           addusdens:      30.87 MB

     Estimated static dynamical RAM per process >       6.39 MB

     Estimated max dynamical RAM per process >      37.26 MB
     Generating pointlists ...
     new r_m :   0.3572 (alat units)  1.9362 (a.u.) for type    1

     The potential is recalculated from file :
     ./output/fe.save/charge-density

     Starting wfcs are    6 randomized atomic wfcs +    2 random wfcs

     Band Structure Calculation
     Davidson diagonalization with overlap

     Computing kpt #:     1  of   136
     total cpu time spent up to now is        1.1 secs

     Computing kpt #:     2  of   136
     total cpu time spent up to now is        1.2 secs

     Computing kpt #:     3  of   136
     total cpu time spent up to now is        1.3 secs

     Computing kpt #:     4  of   136
     total cpu time spent up to now is        1.4 secs

     Computing kpt #:     5  of   136
     total cpu time spent up to now is        1.4 secs

     Computing kpt #:     6  of   136
     total cpu time spent up to now is        1.5 secs

     Computing kpt #:     7  of   136
     total cpu time spent up to now is        1.6 secs

     Computing kpt #:     8  of   136
     total cpu time spent up to now is        1.7 secs

     Computing kpt #:     9  of   136
     total cpu time spent up to now is        1.8 secs

     Computing kpt #:    10  of   136
     total cpu time spent up to now is        1.8 secs

     Computing kpt #:    11  of   136
     total cpu time spent up to now is        1.9 secs

     Computing kpt #:    12  of   136
     total cpu time spent up to now is        2.0 secs

     Computing kpt #:    13  of   136
     total cpu time spent up to now is        2.1 secs

     Computing kpt #:    14  of   136
     total cpu time spent up to now is        2.2 secs

     Computing kpt #:    15  of   136
     total cpu time spent up to now is        2.3 secs

     Computing kpt #:    16  of   136
     total cpu time spent up to now is        2.3 secs

     Computing kpt #:    17  of   136
     total cpu time spent up to now is        2.4 secs

     Computing kpt #:    18  of   136
     total cpu time spent up to now is        2.5 secs

     Computing kpt #:    19  of   136
     total cpu time spent up to now is        2.6 secs

     Computing kpt #:    20  of   136
     total cpu time spent up to now is        2.7 secs

     Computing kpt #:    21  of   136
     total cpu time spent up to now is        2.7 secs

     Computing kpt #:    22  of   136
     total cpu time spent up to now is        2.8 secs

     Computing kpt #:    23  of   136
     total cpu time spent up to now is        2.9 secs

     Computing kpt #:    24  of   136
     total cpu time spent up to now is        3.0 secs

     Computing kpt #:    25  of   136
     total cpu time spent up to now is        3.1 secs

     Computing kpt #:    26  of   136
     total cpu time spent up to now is        3.2 secs

     Computing kpt #:    27  of   136
     total cpu time spent up to now is        3.3 secs

     Computing kpt #:    28  of   136
     total cpu time spent up to now is        3.4 secs

     Computing kpt #:    29  of   136
     total cpu time spent up to now is        3.5 secs

     Computing kpt #:    30  of   136
     total cpu time spent up to now is        3.5 secs

     Computing kpt #:    31  of   136
     total cpu time spent up to now is        3.6 secs

     Computing kpt #:    32  of   136
     total cpu time spent up to now is        3.7 secs

     Computing kpt #:    33  of   136
     total cpu time spent up to now is        3.8 secs

     Computing kpt #:    34  of   136
     total cpu time spent up to now is        3.9 secs

     Computing kpt #:    35  of   136
     total cpu time spent up to now is        4.0 secs

     Computing kpt #:    36  of   136
     total cpu time spent up to now is        4.1 secs

     Computing kpt #:    37  of   136
     total cpu time spent up to now is        4.2 secs

     Computing kpt #:    38  of   136
     total cpu time spent up to now is        4.3 secs

     Computing kpt #:    39  of   136
     total cpu time spent up to now is        4.4 secs

     Computing kpt #:    40  of   136
     total cpu time spent up to now is        4.5 secs

     Computing kpt #:    41  of   136
     total cpu time spent up to now is        4.6 secs

     Computing kpt #:    42  of   136
     total cpu time spent up to now is        4.6 secs

     Computing kpt #:    43  of   136
     total cpu time spent up to now is        4.7 secs

     Computing kpt #:    44  of   136
     total cpu time spent up to now is        4.8 secs

     Computing kpt #:    45  of   136
     total cpu time spent up to now is        4.9 secs

     Computing kpt #:    46  of   136
     total cpu time spent up to now is        5.0 secs

     Computing kpt #:    47  of   136
     total cpu time spent up to now is        5.1 secs

     Computing kpt #:    48  of   136
     total cpu time spent up to now is        5.2 secs

     Computing kpt #:    49  of   136
     total cpu time spent up to now is        5.3 secs

     Computing kpt #:    50  of   136
     total cpu time spent up to now is        5.4 secs

     Computing kpt #:    51  of   136
     total cpu time spent up to now is        5.5 secs

     Computing kpt #:    52  of   136
     total cpu time spent up to now is        5.5 secs

     Computing kpt #:    53  of   136
     total cpu time spent up to now is        5.6 secs

     Computing kpt #:    54  of   136
     total cpu time spent up to now is        5.7 secs

     Computing kpt #:    55  of   136
     total cpu time spent up to now is        5.8 secs

     Computing kpt #:    56  of   136
     total cpu time spent up to now is        5.9 secs

     Computing kpt #:    57  of   136
     total cpu time spent up to now is        6.0 secs

     Computing kpt #:    58  of   136
     total cpu time spent up to now is        6.0 secs

     Computing kpt #:    59  of   136
     total cpu time spent up to now is        6.1 secs

     Computing kpt #:    60  of   136
     total cpu time spent up to now is        6.2 secs

     Computing kpt #:    61  of   136
     total cpu time spent up to now is        6.3 secs

     Computing kpt #:    62  of   136
     total cpu time spent up to now is        6.4 secs

     Computing kpt #:    63  of   136
     total cpu time spent up to now is        6.5 secs

     Computing kpt #:    64  of   136
     total cpu time spent up to now is        6.6 secs

     Computing kpt #:    65  of   136
     total cpu time spent up to now is        6.6 secs

     Computing kpt #:    66  of   136
     total cpu time spent up to now is        6.7 secs

     Computing kpt #:    67  of   136
     total cpu time spent up to now is        6.8 secs

     Computing kpt #:    68  of   136
     total cpu time spent up to now is        6.9 secs

     Computing kpt #:    69  of   136
     total cpu time spent up to now is        7.0 secs

     Computing kpt #:    70  of   136
     total cpu time spent up to now is        7.0 secs

     Computing kpt #:    71  of   136
     total cpu time spent up to now is        7.1 secs

     Computing kpt #:    72  of   136
     total cpu time spent up to now is        7.2 secs

     Computing kpt #:    73  of   136
     total cpu time spent up to now is        7.3 secs

     Computing kpt #:    74  of   136
     total cpu time spent up to now is        7.3 secs

     Computing kpt #:    75  of   136
     total cpu time spent up to now is        7.4 secs

     Computing kpt #:    76  of   136
     total cpu time spent up to now is        7.5 secs

     Computing kpt #:    77  of   136
     total cpu time spent up to now is        7.5 secs

     Computing kpt #:    78  of   136
     total cpu time spent up to now is        7.6 secs

     Computing kpt #:    79  of   136
     total cpu time spent up to now is        7.7 secs

     Computing kpt #:    80  of   136
     total cpu time spent up to now is        7.8 secs

     Computing kpt #:    81  of   136
     total cpu time spent up to now is        7.8 secs

     Computing kpt #:    82  of   136
     total cpu time spent up to now is        7.9 secs

     Computing kpt #:    83  of   136
     total cpu time spent up to now is        8.0 secs

     Computing kpt #:    84  of   136
     total cpu time spent up to now is        8.1 secs

     Computing kpt #:    85  of   136
     total cpu time spent up to now is        8.2 secs

     Computing kpt #:    86  of   136
     total cpu time spent up to now is        8.2 secs

     Computing kpt #:    87  of   136
     total cpu time spent up to now is        8.3 secs

     Computing kpt #:    88  of   136
     total cpu time spent up to now is        8.4 secs

     Computing kpt #:    89  of   136
     total cpu time spent up to now is        8.5 secs

     Computing kpt #:    90  of   136
     total cpu time spent up to now is        8.5 secs

     Computing kpt #:    91  of   136
     total cpu time spent up to now is        8.6 secs

     Computing kpt #:    92  of   136
     total cpu time spent up to now is        8.7 secs

     Computing kpt #:    93  of   136
     total cpu time spent up to now is        8.8 secs

     Computing kpt #:    94  of   136
     total cpu time spent up to now is        8.9 secs

     Computing kpt #:    95  of   136
     total cpu time spent up to now is        8.9 secs

     Computing kpt #:    96  of   136
     total cpu time spent up to now is        9.0 secs

     Computing kpt #:    97  of   136
     total cpu time spent up to now is        9.1 secs

     Computing kpt #:    98  of   136
     total cpu time spent up to now is        9.2 secs

     Computing kpt #:    99  of   136
     total cpu time spent up to now is        9.2 secs

     Computing kpt #:   100  of   136
     total cpu time spent up to now is        9.3 secs

     Computing kpt #:   101  of   136
     total cpu time spent up to now is        9.4 secs

     Computing kpt #:   102  of   136
     total cpu time spent up to now is        9.5 secs

     Computing kpt #:   103  of   136
     total cpu time spent up to now is        9.6 secs

     Computing kpt #:   104  of   136
     total cpu time spent up to now is        9.7 secs

     Computing kpt #:   105  of   136
     total cpu time spent up to now is        9.8 secs

     Computing kpt #:   106  of   136
     total cpu time spent up to now is        9.9 secs

     Computing kpt #:   107  of   136
     total cpu time spent up to now is       10.0 secs

     Computing kpt #:   108  of   136
     total cpu time spent up to now is       10.0 secs

     Computing kpt #:   109  of   136
     total cpu time spent up to now is       10.1 secs

     Computing kpt #:   110  of   136
     total cpu time spent up to now is       10.2 secs

     Computing kpt #:   111  of   136
     total cpu time spent up to now is       10.3 secs

     Computing kpt #:   112  of   136
     total cpu time spent up to now is       10.4 secs

     Computing kpt #:   113  of   136
     total cpu time spent up to now is       10.4 secs

     Computing kpt #:   114  of   136
     total cpu time spent up to now is       10.5 secs

     Computing kpt #:   115  of   136
     total cpu time spent up to now is       10.6 secs

     Computing kpt #:   116  of   136
     total cpu time spent up to now is       10.7 secs

     Computing kpt #:   117  of   136
     total cpu time spent up to now is       10.7 secs

     Computing kpt #:   118  of   136
     total cpu time spent up to now is       10.8 secs

     Computing kpt #:   119  of   136
     total cpu time spent up to now is       10.9 secs

     Computing kpt #:   120  of   136
     total cpu time spent up to now is       11.0 secs

     Computing kpt #:   121  of   136
     total cpu time spent up to now is       11.1 secs

     Computing kpt #:   122  of   136
     total cpu time spent up to now is       11.1 secs

     Computing kpt #:   123  of   136
     total cpu time spent up to now is       11.2 secs

     Computing kpt #:   124  of   136
     total cpu time spent up to now is       11.3 secs

     Computing kpt #:   125  of   136
     total cpu time spent up to now is       11.4 secs

     Computing kpt #:   126  of   136
     total cpu time spent up to now is       11.5 secs

     Computing kpt #:   127  of   136
     total cpu time spent up to now is       11.6 secs

     Computing kpt #:   128  of   136
     total cpu time spent up to now is       11.7 secs

     Computing kpt #:   129  of   136
     total cpu time spent up to now is       11.7 secs

     Computing kpt #:   130  of   136
     total cpu time spent up to now is       11.8 secs

     Computing kpt #:   131  of   136
     total cpu time spent up to now is       11.9 secs

     Computing kpt #:   132  of   136
     total cpu time spent up to now is       12.0 secs

     Computing kpt #:   133  of   136
     total cpu time spent up to now is       12.1 secs

     Computing kpt #:   134  of   136
     total cpu time spent up to now is       12.2 secs

     Computing kpt #:   135  of   136
     total cpu time spent up to now is       12.3 secs

     Computing kpt #:   136  of   136
     total cpu time spent up to now is       12.4 secs

     ethr =  1.25E-08,  avg # of iterations = 31.5

     total cpu time spent up to now is       12.7 secs

     End of band structure calculation

 ------ SPIN UP ------------


          k = 0.0000 0.0000 0.0833 (   471 PWs)   bands (ev):

     4.8823  10.6111  10.6111  10.6488  11.6804  11.7639  36.4198  37.1678

     occupation numbers 
     1.0000   1.0000   1.0000   1.0000   1.0000   1.0000   0.0000   0.0000

          k = 0.0000-0.0833 0.1667 (   474 PWs)   bands (ev):

     5.4304  10.4853  10.5934  10.9224  11.5358  11.8038  33.9640  36.1279

     occupation numbers 
     1.0000   1.0000   1.0000   1.0000   1.0000   1.0000   0.0000   0.0000

          k = 0.0000-0.1667 0.2500 (   475 PWs)   bands (ev):

     6.4288  10.2536  10.5057  11.4425  11.4740  11.8494  30.3256  34.3833

     occupation numbers 
     1.0000   1.0000   1.0000   1.0000   1.0000   1.0124   0.0000   0.0000

          k = 0.0000-0.2500 0.3333 (   480 PWs)   bands (ev):

     7.5442   9.9945  10.5850  11.5992  11.9216  12.0928  26.5042  32.7591

     occupation numbers 
     1.0000   1.0000   1.0000   1.0000   1.0000   0.9913   0.0000   0.0000

          k = 0.0000-0.3333 0.4167 (   475 PWs)   bands (ev):

     8.1162   9.7773  11.2247  11.7894  12.3228  12.7096  22.9830  31.5537

     occupation numbers 
     1.0000   1.0000   1.0000   1.0000   1.0027   0.3591   0.0000   0.0000

          k = 0.0000-0.4167 0.5000 (   477 PWs)   bands (ev):

     8.1888   9.6546  11.6122  11.7930  13.0938  13.5745  20.3910  30.9162

     occupation numbers 
     1.0000   1.0000   1.0000   1.0000   0.4954  -0.0302   0.0000   0.0000

          k =-0.0833 0.0833 0.0833 (   477 PWs)   bands (ev):

     5.1594  10.5298  10.5298  10.8675  11.6995  11.6995  35.4749  35.4749

     occupation numbers 
     1.0000   1.0000   1.0000   1.0000   1.0000   1.0000   0.0000   0.0000

          k =-0.0833-0.0833 0.2500 (   479 PWs)   bands (ev):

     6.2004  10.4177  10.4665  11.3005  11.3676  11.8953  31.9487  33.3215

     occupation numbers 
     1.0000   1.0000   1.0000   1.0000   1.0000   1.0047   0.0000   0.0000

          k =-0.0833-0.1667 0.3333 (   474 PWs)   bands (ev):

     7.2883  10.1774  10.3456  11.3815  11.8863  12.0606  28.5989  31.2395

     occupation numbers 
     1.0000   1.0000   1.0000   1.0000   1.0000   1.0061   0.0000   0.0000

          k =-0.0833-0.2500 0.4167 (   471 PWs)   bands (ev):

     8.1720   9.9393  10.5011  11.5857  12.1235  12.8564  24.8972  29.9108

     occupation numbers 
     1.0000   1.0000   1.0000   1.0000   1.0097   0.3499   0.0000   0.0000

          k =-0.0833-0.3333 0.5000 (   473 PWs)   bands (ev):

     8.3971   9.7900  10.9356  11.7131  12.5488  14.0682  21.6581  29.0460

     occupation numbers 
     1.0000   1.0000   1.0000   1.0000   1.0090  -0.0182   0.0000   0.0000

          k =-0.0833 0.5833-0.4167 (   477 PWs)   bands (ev):

     8.3931   9.7371  11.1192  11.7131  12.7944  15.0358  20.0138  28.7381

     occupation numbers 
     1.0000   1.0000   1.0000   1.0000   0.8423  -0.0039   0.0000   0.0000

          k =-0.1667 0.1667 0.0833 (   476 PWs)   bands (ev):

     5.9502  10.3220  10.4359  11.3191  11.5990  11.7445  32.1975  33.9888

     occupation numbers 
     1.0000   1.0000   1.0000   1.0000   1.0000   1.0072   0.0000   0.0000

          k =-0.1667-0.1667 0.4167 (   473 PWs)   bands (ev):

     8.2492   9.9128  10.2914  11.4303  12.0683  12.9640  26.8770  27.6751

     occupation numbers 
     1.0000   1.0000   1.0000   1.0000   1.0079   0.2714   0.0000   0.0000

          k =-0.1667-0.2500 0.5000 (   475 PWs)   bands (ev):

     8.7776   9.7581  10.3823  11.6136  12.2381  14.3892  23.6163  26.2597

     occupation numbers 
     1.0000   1.0000   1.0000   1.0000   1.0201  -0.0509   0.0000   0.0000

          k =-0.1667 0.6667-0.4167 (   476 PWs)   bands (ev):

     8.8076   9.7847  10.4872  11.7298  12.4554  16.1413  20.7423  25.6552

     occupation numbers 
     1.0000   1.0000   1.0000   1.0000   1.0321  -0.0062   0.0000   0.0000

          k =-0.2500 0.2500 0.0833 (   479 PWs)   bands (ev):

     7.0761  10.0604  10.3617  11.6062  11.7992  11.9695  28.4231  32.4758

     occupation numbers 
     1.0000   1.0000   1.0000   1.0000   1.0000   1.0181   0.0000   0.0000

          k =-0.2500 0.1667 0.1667 (   473 PWs)   bands (ev):

     6.9046  10.1510  10.1693  11.5885  11.7980  11.9745  30.1891  31.0963

     occupation numbers 
     1.0000   1.0000   1.0000   1.0000   1.0000   0.9753   0.0000   0.0000

          k =-0.2500 0.7500-0.4167 (   476 PWs)   bands (ev):

     9.2090   9.5954  10.2141  11.7964  12.2687  16.4692  22.2882  23.3410

     occupation numbers 
     1.0000   1.0000   1.0000   1.0000   1.0019  -0.0046   0.0000   0.0000

          k =-0.2500 0.6667-0.3333 (   477 PWs)   bands (ev):

     9.2801   9.7335  10.0060  11.9319  12.2509  18.3162  20.2731  22.7634

     occupation numbers 
     1.0000   1.0000   1.0000   1.0000   1.0023   0.0000   0.0000   0.0000

          k =-0.3333 0.3333 0.0833 (   476 PWs)   bands (ev):

     7.9944   9.8161  10.7818  11.7177  11.8547  12.7480  24.7111  31.1990

     occupation numbers 
     1.0000   1.0000   1.0000   1.0000   1.0027   0.5030   0.0000   0.0000

          k =-0.3333 0.2500 0.1667 (   481 PWs)   bands (ev):

     7.9964   9.8914  10.1289  11.6365  11.8824  12.8559  26.8014  29.3513

     occupation numbers 
     1.0000   1.0000   1.0000   1.0000   1.0019   0.4206   0.0000   0.0000

          k =-0.4167 0.4167 0.0833 (   476 PWs)   bands (ev):

     8.2375   9.6455  11.7024  11.8989  11.9749  13.6874  21.5247  30.3533

     occupation numbers 
     1.0000   1.0000   1.0000   1.0000   1.0374  -0.0087   0.0000   0.0000

          k =-0.4167 0.3333 0.1667 (   482 PWs)   bands (ev):

     8.5274   9.6991  10.6712  11.7513  11.9614  14.0144  23.2834  28.2877

     occupation numbers 
     1.0000   1.0000   1.0000   1.0000   1.0105  -0.0068   0.0000   0.0000

          k =-0.4167 0.2500 0.2500 (   479 PWs)   bands (ev):

     8.8024   9.7224  10.0993  11.6994  11.9794  14.1347  25.2448  26.0003

     occupation numbers 
     1.0000   1.0000   1.0000   1.0000   1.0000  -0.0249   0.0000   0.0000

          k = 0.5000-0.5000 0.0833 (   480 PWs)   bands (ev):

     8.2417   9.5845  11.8189  11.9161  12.4052  14.4370  19.9684  30.0579

     occupation numbers 
     1.0000   1.0000   1.0000   1.0000   1.0670  -0.0150   0.0000   0.0000

          k = 0.5000-0.5833 0.1667 (   480 PWs)   bands (ev):

     8.5498   9.6007  11.2661  11.8249  12.0930  15.3943  20.5583  27.7236

     occupation numbers 
     1.0000   1.0000   1.0000   1.0000   1.0338  -0.0179   0.0000   0.0000

          k = 0.5000-0.6667 0.2500 (   479 PWs)   bands (ev):

     9.0039   9.6458  10.4276  11.8092  12.0547  15.8592  22.2069  24.8711

     occupation numbers 
     1.0000   1.0000   1.0000   1.0000   1.0000  -0.0139   0.0000   0.0000

          k = 0.4167-0.5833 0.2500 (   476 PWs)   bands (ev):

     8.9812   9.6334  10.6089  11.8646  12.0982  17.2672  20.2493  24.5681

     occupation numbers 
     1.0000   1.0000   1.0000   1.0000   1.0040   0.0000   0.0000   0.0000

          k = 0.4167-0.6667 0.3333 (   477 PWs)   bands (ev):

     9.2387   9.7641  10.1587  11.9196  12.0449  18.1482  20.9312  22.4456

     occupation numbers 
     1.0000   1.0000   1.0000   1.0000   1.0000   0.0000   0.0000   0.0000

          k = 0.0000 0.0000 0.2500 (   482 PWs)   bands (ev):

     5.9551  10.6401  10.6401  10.9336  11.2222  11.9443  33.3062  35.1720

     occupation numbers 
     1.0000   1.0000   1.0000   1.0000   1.0000   1.0020   0.0000   0.0000

          k = 0.0000-0.0833 0.3333 (   473 PWs)   bands (ev):

     6.8986  10.5136  10.5399  11.0783  11.3803  12.0914  30.6503  33.3092

     occupation numbers 
     1.0000   1.0000   1.0000   1.0000   1.0000   1.0099   0.0000   0.0000

          k = 0.0000-0.1667 0.4167 (   473 PWs)   bands (ev):

     7.9302  10.2848  10.2905  11.3448  12.0329  12.3900  26.8976  31.9577

     occupation numbers 
     1.0000   1.0000   1.0000   1.0000   1.0000   0.7969   0.0000   0.0000

          k = 0.0000-0.2500 0.5000 (   472 PWs)   bands (ev):

     8.4411  10.0963  10.3785  11.5612  12.6630  13.3654  23.3202  30.6887

     occupation numbers 
     1.0000   1.0000   1.0000   1.0000   0.9958   0.0304   0.0000   0.0000

          k = 0.0000-0.3333 0.5833 (   474 PWs)   bands (ev):

     8.4761   9.9855  10.6151  11.5730  13.0587  14.9280  20.5563  29.9595

     occupation numbers 
     1.0000   1.0000   1.0000   1.0000   0.3598   0.0000   0.0000   0.0000

          k =-0.0833-0.0833 0.4167 (   472 PWs)   bands (ev):

     7.8437  10.1956  10.5778  11.0857  11.8318  12.4300  28.8687  29.7537

     occupation numbers 
     1.0000   1.0000   1.0000   1.0000   1.0000   0.7916   0.0000   0.0000

          k =-0.0833-0.1667 0.5000 (   472 PWs)   bands (ev):

     8.5953   9.8757  10.4778  11.3655  12.2851  13.3979  25.4499  28.0855

     occupation numbers 
     1.0000   1.0000   1.0000   1.0000   1.0224   0.0295   0.0000   0.0000

          k =-0.0833-0.2500 0.5833 (   475 PWs)   bands (ev):

     8.7688   9.9368  10.3194  11.5350  12.7174  15.0955  22.0879  27.1884

     occupation numbers 
     1.0000   1.0000   1.0000   1.0000   0.9768  -0.0149   0.0000   0.0000

          k =-0.0833 0.6667-0.3333 (   468 PWs)   bands (ev):

     8.7362  10.1437  10.1449  11.5614  12.9171  16.4587  20.1849  26.8668

     occupation numbers 
     1.0000   1.0000   1.0000   1.0000   0.5921   0.0000   0.0000   0.0000

          k =-0.1667-0.1667 0.5833 (   469 PWs)   bands (ev):

     9.0908   9.5083  10.4236  11.6003  12.4461  15.1755  24.0471  24.7488

     occupation numbers 
     1.0000   1.0000   1.0000   1.0000   1.0441  -0.0210   0.0000   0.0000

          k =-0.1667 0.7500-0.3333 (   472 PWs)   bands (ev):

     9.1403   9.6329  10.1503  11.8332  12.5769  17.3773  21.1838  23.8770

     occupation numbers 
     1.0000   1.0000   1.0000   1.0000   1.0309   0.0000   0.0000   0.0000

          k =-0.2500 0.2500 0.2500 (   483 PWs)   bands (ev):

     7.9389   9.8982   9.8982  11.7577  11.7577  12.8806  28.6866  28.6866

     occupation numbers 
     1.0000   1.0000   1.0000   1.0000   1.0000   0.4266   0.0000   0.0000

          k =-0.2500 0.7500-0.2500 (   475 PWs)   bands (ev):

     9.4559   9.4559   9.9250  12.2619  12.2619  19.8466  19.8466  22.0795

     occupation numbers 
     1.0000   1.0000   1.0000   1.0000   1.0068   0.0000   0.0000   0.0000

          k =-0.3333 0.3333 0.2500 (   478 PWs)   bands (ev):

     8.8409   9.6957   9.9266  11.7961  11.8621  14.0776  25.3583  27.5437

     occupation numbers 
     1.0000   1.0000   1.0000   1.0000   1.0000  -0.0019   0.0000   0.0000

          k = 0.5833-0.5833 0.2500 (   485 PWs)   bands (ev):

     8.9422   9.5739  10.6054  11.8604  11.9147  15.6450  22.0829  26.8263

     occupation numbers 
     1.0000   1.0000   1.0000   1.0000   1.0000  -0.0165   0.0000   0.0000

          k = 0.5833-0.6667 0.3333 (   479 PWs)   bands (ev):

     9.3288   9.6326   9.9753  11.8608  11.9233  15.7234  24.0308  24.7383

     occupation numbers 
     1.0000   1.0000   1.0000   1.0000   1.0000  -0.0153   0.0000   0.0000

          k = 0.5000-0.5000 0.2500 (   484 PWs)   bands (ev):

     8.8943   9.5336  10.9556  11.8893  11.9304  16.8881  20.2236  26.5812

     occupation numbers 
     1.0000   1.0000   1.0000   1.0000   1.0017  -0.0003   0.0000   0.0000

          k = 0.5000-0.5833 0.3333 (   481 PWs)   bands (ev):

     9.2910   9.6119  10.3269  11.9121  11.9532  17.7414  21.2664  23.9369

     occupation numbers 
     1.0000   1.0000   1.0000   1.0000   1.0000   0.0000   0.0000   0.0000

          k = 0.4167-0.5833 0.4167 (   475 PWs)   bands (ev):

     9.3609   9.9513   9.9513  11.9507  11.9507  20.0691  20.0691  22.1319

     occupation numbers 
     1.0000   1.0000   1.0000   1.0000   1.0000   0.0000   0.0000   0.0000

          k = 0.0000 0.0000 0.4167 (   470 PWs)   bands (ev):

     7.6964  10.4225  10.8354  10.8354  11.4349  12.4160  30.9083  31.4981

     occupation numbers 
     1.0000   1.0000   1.0000   1.0000   1.0000   0.8033   0.0000   0.0000

          k = 0.0000-0.0833 0.5000 (   470 PWs)   bands (ev):

     8.4792   9.9285  10.8155  11.1469  11.9538  13.0678  27.6377  29.7505

     occupation numbers 
     1.0000   1.0000   1.0000   1.0000   1.0000   0.1842   0.0000   0.0000

          k = 0.0000-0.1667 0.5833 (   474 PWs)   bands (ev):

     8.8348   9.6604  10.6876  11.3896  12.5854  14.5093  23.9969  28.3979

     occupation numbers 
     1.0000   1.0000   1.0000   1.0000   1.0129  -0.0315   0.0000   0.0000

          k = 0.0000-0.2500 0.6667 (   474 PWs)   bands (ev):

     8.7957   9.6980  10.6047  11.4470  12.9983  16.5099  20.9634  27.6362

     occupation numbers 
     1.0000   1.0000   1.0000   1.0000   0.2973   0.0000   0.0000   0.0000

          k =-0.0833-0.0833 0.5833 (   473 PWs)   bands (ev):

     8.9007   9.4955  10.9127  11.4111  12.3278  14.3688  26.1061  26.5642

     occupation numbers 
     1.0000   1.0000   1.0000   1.0000   1.0309  -0.0358   0.0000   0.0000

          k =-0.0833-0.1667 0.6667 (   473 PWs)   bands (ev):

     8.9783   9.3026  10.7945  11.6942  12.7161  16.4099  22.8459  25.4172

     occupation numbers 
     1.0000   1.0000   1.0000   1.0000   1.0165   0.0000   0.0000   0.0000

          k =-0.0833 0.7500-0.2500 (   472 PWs)   bands (ev):

     8.8964   9.3379  10.7289  11.7757  12.8979  18.2260  20.5747  25.0615

     occupation numbers 
     1.0000   1.0000   1.0000   1.0000   0.5461   0.0000   0.0000   0.0000

          k =-0.1667 0.8333-0.2500 (   471 PWs)   bands (ev):

     9.0466   9.0994  10.6826  12.1971  12.6388  18.8410  21.6822  22.7403

     occupation numbers 
     1.0000   1.0000   1.0000   1.0000   1.0601   0.0000   0.0000   0.0000

          k = 0.5833-0.5833 0.4167 (   483 PWs)   bands (ev):

     9.6113   9.6113   9.9727  11.9292  11.9292  17.7638  23.2826  23.2826

     occupation numbers 
     1.0000   1.0000   1.0000   1.0000   1.0000   0.0000   0.0000   0.0000

          k = 0.5000-0.5000 0.4167 (   478 PWs)   bands (ev):

     9.6118   9.6425  10.0378  11.9421  11.9448  19.7730  21.0114  23.0300

     occupation numbers 
     1.0000   1.0000   1.0000   1.0000   1.0000   0.0000   0.0000   0.0000

          k = 0.0000 0.0000 0.5833 (   474 PWs)   bands (ev):

     8.8150   9.5030  11.3308  11.3308  12.0263  14.1255  27.8557  27.8557

     occupation numbers 
     1.0000   1.0000   1.0000   1.0000   1.0000  -0.0315   0.0000   0.0000

          k = 0.0000-0.0833 0.6667 (   471 PWs)   bands (ev):

     8.8780   9.1134  11.4421  11.6361  12.5100  15.8633  24.8607  26.3940

     occupation numbers 
     1.0000   1.0000   1.0000   1.0000   1.0261   0.0000   0.0000   0.0000

          k = 0.0000-0.1667 0.7500 (   468 PWs)   bands (ev):

     8.7671   8.9904  11.4162  11.7840  12.9290  18.1683  21.7055  25.5680

     occupation numbers 
     1.0000   1.0000   1.0000   1.0000   0.3395   0.0000   0.0000   0.0000

          k =-0.0833-0.0833 0.7500 (   468 PWs)   bands (ev):

     8.7827   8.8010  11.5347  12.1266  12.7399  17.9790  23.6232  24.0062

     occupation numbers 
     1.0000   1.0000   1.0000   1.0000   1.0525   0.0000   0.0000   0.0000

          k =-0.0833 0.8333-0.1667 (   470 PWs)   bands (ev):

     8.6774   8.7495  11.5238  12.3439  12.8457  20.1395  21.2799  23.4687

     occupation numbers 
     1.0000   1.0000   1.0000   1.0000   0.6168   0.0000   0.0000   0.0000

          k = 0.0000 0.0000 0.7500 (   474 PWs)   bands (ev):

     8.6624   8.7199  12.0974  12.0974  12.5492  17.6432  24.8257  24.8257

     occupation numbers 
     1.0000   1.0000   1.0000   1.0000   1.0868   0.0000   0.0000   0.0000

          k = 0.0000-0.0833 0.8333 (   480 PWs)   bands (ev):

     8.4886   8.5150  12.2434  12.3809  12.8703  19.9083  22.6632  23.9252

     occupation numbers 
     1.0000   1.0000   1.0000   1.0000   0.4231   0.0000   0.0000   0.0000

          k =-0.0833 0.9167-0.0833 (   478 PWs)   bands (ev):

     8.3943   8.3943  12.3274  12.8011  12.8011  21.9837  21.9837  22.5633

     occupation numbers 
     1.0000   1.0000   1.0000   1.0000   1.0217   0.0000   0.0000   0.0000

          k = 0.0000 0.0000 0.9167 (   486 PWs)   bands (ev):

     8.2757   8.2789  12.7841  12.7841  12.8553  21.7090  22.9663  22.9663

     occupation numbers 
     1.0000   1.0000   1.0000   1.0000   0.4403   0.0000   0.0000   0.0000

 ------ SPIN DOWN ----------


          k = 0.0000 0.0000 0.0833 (   471 PWs)   bands (ev):

     4.9546  12.8391  12.8391  12.8882  14.7543  14.8676  36.2267  36.9245

     occupation numbers 
     1.0000   1.0000   1.0000   0.0000   0.0000   0.0000   0.0000   0.0000

          k = 0.0000-0.0833 0.1667 (   474 PWs)   bands (ev):

     5.5085  12.6806  12.7956  13.1913  14.5460  14.9159  34.1202  36.0904

     occupation numbers 
     1.0000   1.0000   1.0000   0.0000   0.0000   0.0000   0.0000   0.0000

          k = 0.0000-0.1667 0.2500 (   475 PWs)   bands (ev):

     6.5472  12.3921  12.6344  13.7744  14.3882  14.9656  30.8349  34.4397

     occupation numbers 
     1.0000   1.0000   1.0000   0.0000   0.0000   0.0000   0.0000   0.0000

          k = 0.0000-0.2500 0.3333 (   480 PWs)   bands (ev):

     7.8809  12.0729  12.4344  14.4208  14.5141  15.0313  27.2731  32.8169

     occupation numbers 
     1.0000   1.0000   1.0000   0.0000   0.0000   0.0000   0.0000   0.0000

          k = 0.0000-0.3333 0.4167 (   475 PWs)   bands (ev):

     9.0590  11.8078  12.5971  14.5592  15.1291  15.2295  24.0300  31.5796

     occupation numbers 
     1.0000   1.0000   0.9875   0.0000   0.0000   0.0000   0.0000   0.0000

          k = 0.0000-0.4167 0.5000 (   477 PWs)   bands (ev):

     9.5774  11.6592  13.2067  14.6349  15.3076  15.6838  21.7985  30.9153

     occupation numbers 
     1.0000   1.0000   0.2514   0.0000   0.0000   0.0000   0.0000   0.0000

          k =-0.0833 0.0833 0.0833 (   477 PWs)   bands (ev):

     5.2339  12.7390  12.7390  13.1275  14.7763  14.7763  35.4766  35.4766

     occupation numbers 
     1.0000   1.0000   1.0000   0.0000   0.0000   0.0000   0.0000   0.0000

          k =-0.0833-0.0833 0.2500 (   479 PWs)   bands (ev):

     6.3006  12.5705  12.6453  13.6010  14.2803  15.0186  32.2957  33.6826

     occupation numbers 
     1.0000   1.0005   1.0010   0.0000   0.0000   0.0000   0.0000   0.0000

          k =-0.0833-0.1667 0.3333 (   474 PWs)   bands (ev):

     7.4948  12.2900  12.4171  14.1830  14.2881  15.1147  29.2279  31.6625

     occupation numbers 
     1.0000   1.0011   1.0158   0.0000   0.0000   0.0000   0.0000   0.0000

          k =-0.0833-0.2500 0.4167 (   471 PWs)   bands (ev):

     8.8021  11.9862  12.2723  14.3173  14.9759  15.3344  25.7668  30.3458

     occupation numbers 
     1.0000   1.0000   1.0132   0.0000   0.0000   0.0000   0.0000   0.0000

          k =-0.0833-0.3333 0.5000 (   473 PWs)   bands (ev):

     9.6638  11.7967  12.4992  14.4875  15.2431  16.0516  22.8308  29.4693

     occupation numbers 
     1.0000   1.0000   1.0014   0.0000   0.0000   0.0000   0.0000   0.0000

          k =-0.0833 0.5833-0.4167 (   477 PWs)   bands (ev):

     9.8788  11.7323  12.7663  14.5285  15.3876  16.5447  21.4660  29.1521

     occupation numbers 
     1.0000   1.0000   0.8868   0.0000   0.0000   0.0000   0.0000   0.0000

          k =-0.1667 0.1667 0.0833 (   476 PWs)   bands (ev):

     6.0406  12.4805  12.6018  13.6198  14.6052  14.8325  32.5421  34.1545

     occupation numbers 
     1.0000   1.0000   1.0000   0.0000   0.0000   0.0000   0.0000   0.0000

          k =-0.1667-0.1667 0.4167 (   473 PWs)   bands (ev):

     8.7139  11.9894  12.2310  14.1706  14.9195  15.4241  27.6250  28.2745

     occupation numbers 
     1.0000   1.0000   1.0118   0.0000   0.0000   0.0000   0.0000   0.0000

          k =-0.1667-0.2500 0.5000 (   475 PWs)   bands (ev):

     9.8271  11.7208  12.1488  14.3375  15.0939  16.4141  24.5452  26.9153

     occupation numbers 
     1.0000   1.0000   1.0087   0.0000   0.0000   0.0000   0.0000   0.0000

          k =-0.1667 0.6667-0.4167 (   476 PWs)   bands (ev):

    10.3303  11.7328  12.1490  14.4915  15.1830  17.6443  21.9796  26.3004

     occupation numbers 
     1.0000   1.0000   1.0234   0.0000   0.0000   0.0000   0.0000   0.0000

          k =-0.2500 0.2500 0.0833 (   479 PWs)   bands (ev):

     7.2600  12.1544  12.3869  14.3171  14.5390  14.9088  29.0534  32.6826

     occupation numbers 
     1.0000   1.0000   1.0000   0.0000   0.0000   0.0000   0.0000   0.0000

          k =-0.2500 0.1667 0.1667 (   473 PWs)   bands (ev):

     7.0427  12.2408  12.2789  14.2963  14.5590  14.8893  30.6628  31.5150

     occupation numbers 
     1.0000   1.0030   1.0056   0.0000   0.0000   0.0000   0.0000   0.0000

          k =-0.2500 0.7500-0.4167 (   476 PWs)   bands (ev):

    10.6762  11.4769  11.9959  14.5187  15.0529  18.0501  23.3070  24.1273

     occupation numbers 
     1.0000   1.0000   1.0087   0.0000   0.0000   0.0000   0.0000   0.0000

          k =-0.2500 0.6667-0.3333 (   477 PWs)   bands (ev):

    10.9774  11.6061  11.7168  14.6719  14.9889  19.5572  21.4737  23.6003

     occupation numbers 
     1.0000   1.0000   1.0170   0.0000   0.0000   0.0000   0.0000   0.0000

          k =-0.3333 0.3333 0.0833 (   476 PWs)   bands (ev):

     8.5945  11.8512  12.3231  14.5991  14.9930  15.1094  25.5951  31.3777

     occupation numbers 
     1.0000   1.0000   1.0098   0.0000   0.0000   0.0000   0.0000   0.0000

          k =-0.3333 0.2500 0.1667 (   481 PWs)   bands (ev):

     8.3419  11.9212  12.0440  14.5624  14.9714  15.1695  27.5113  29.8305

     occupation numbers 
     1.0000   1.0000   1.0081   0.0000   0.0000   0.0000   0.0000   0.0000

          k =-0.4167 0.4167 0.0833 (   476 PWs)   bands (ev):

     9.4630  11.6408  12.8071  14.6876  15.0633  15.8147  22.7302  30.4917

     occupation numbers 
     1.0000   1.0000   0.8588   0.0000   0.0000   0.0000   0.0000   0.0000

          k =-0.4167 0.3333 0.1667 (   482 PWs)   bands (ev):

     9.5005  11.6693  12.1089  14.6555  15.0636  16.0984  24.2455  28.7663

     occupation numbers 
     1.0000   1.0000   1.0183   0.0000   0.0000   0.0000   0.0000   0.0000

          k =-0.4167 0.2500 0.2500 (   479 PWs)   bands (ev):

     9.5533  11.6481  11.8483  14.6143  15.0651  16.2313  26.0428  26.6544

     occupation numbers 
     1.0000   1.0000   1.0030   0.0000   0.0000   0.0000   0.0000   0.0000

          k = 0.5000-0.5000 0.0833 (   480 PWs)   bands (ev):

     9.6791  11.5659  13.2821  14.7175  15.0913  16.1564  21.4547  30.1788

     occupation numbers 
     1.0000   1.0000   0.1859   0.0000   0.0000   0.0000   0.0000   0.0000

          k = 0.5000-0.5833 0.1667 (   480 PWs)   bands (ev):

     9.9793  11.5419  12.5661  14.7377  15.1160  16.9812  21.8655  28.1888

     occupation numbers 
     1.0000   1.0000   0.9897   0.0000   0.0000   0.0000   0.0000   0.0000

          k = 0.5000-0.6667 0.2500 (   479 PWs)   bands (ev):

    10.3735  11.5054  11.9126  14.7282  15.0892  17.5429  23.2098  25.5639

     occupation numbers 
     1.0000   1.0000   1.0003   0.0000   0.0000   0.0000   0.0000   0.0000

          k = 0.4167-0.5833 0.2500 (   476 PWs)   bands (ev):

    10.5465  11.4891  12.0796  14.7961  15.0870  18.5573  21.5298  25.2544

     occupation numbers 
     1.0000   1.0000   1.0056   0.0000   0.0000   0.0000   0.0000   0.0000

          k = 0.4167-0.6667 0.3333 (   477 PWs)   bands (ev):

    10.9138  11.4682  11.7339  14.8580  15.0227  19.4464  21.9874  23.3076

     occupation numbers 
     1.0000   1.0000   1.0000   0.0000   0.0000   0.0000   0.0000   0.0000

          k = 0.0000 0.0000 0.2500 (   482 PWs)   bands (ev):

     6.0447  12.8281  12.8281  13.2102  14.1301  15.0810  33.4524  35.5039

     occupation numbers 
     1.0000   1.0000   1.0000   0.0000   0.0000   0.0000   0.0000   0.0000

          k = 0.0000-0.0833 0.3333 (   473 PWs)   bands (ev):

     7.0453  12.6661  12.7432  13.7045  13.8046  15.2023  31.1513  33.5951

     occupation numbers 
     1.0000   0.9971   0.9890   0.0000   0.0000   0.0000   0.0000   0.0000

          k = 0.0000-0.1667 0.4167 (   473 PWs)   bands (ev):

     8.3213  12.3926  12.4048  13.9055  14.4435  15.3342  27.6508  32.2241

     occupation numbers 
     1.0000   1.0000   1.0346   0.0000   0.0000   0.0000   0.0000   0.0000

          k = 0.0000-0.2500 0.5000 (   472 PWs)   bands (ev):

     9.4549  12.1557  12.2181  14.1749  15.1740  15.6879  24.3184  31.2596

     occupation numbers 
     1.0000   1.0000   1.0392   0.0000   0.0000   0.0000   0.0000   0.0000

          k = 0.0000-0.3333 0.5833 (   474 PWs)   bands (ev):

     9.9632  12.0213  12.3779  14.2666  15.6430  16.4487  21.8863  30.4921

     occupation numbers 
     1.0000   1.0000   1.0131   0.0000   0.0000   0.0000   0.0000   0.0000

          k =-0.0833-0.0833 0.4167 (   472 PWs)   bands (ev):

     8.1513  12.4594  12.6703  13.6200  14.2230  15.3744  29.5276  30.3092

     occupation numbers 
     1.0000   1.0011   0.9646   0.0000   0.0000   0.0000   0.0000   0.0000

          k =-0.0833-0.1667 0.5000 (   472 PWs)   bands (ev):

     9.3477  12.0111  12.5192  13.8598  14.8645  15.7886  26.2794  28.7008

     occupation numbers 
     1.0000   1.0014   0.9751   0.0000   0.0000   0.0000   0.0000   0.0000

          k =-0.0833-0.2500 0.5833 (   475 PWs)   bands (ev):

    10.1702  11.8392  12.3261  14.1066  15.2953  16.8347  23.1627  27.7974

     occupation numbers 
     1.0000   1.0000   1.0028   0.0000   0.0000   0.0000   0.0000   0.0000

          k =-0.0833 0.6667-0.3333 (   468 PWs)   bands (ev):

    10.3828  11.9470  12.1838  14.1567  15.4984  17.7538  21.5254  27.4626

     occupation numbers 
     1.0000   1.0000   1.0115   0.0000   0.0000   0.0000   0.0000   0.0000

          k =-0.1667-0.1667 0.5833 (   469 PWs)   bands (ev):

    10.3084  11.5847  12.4456  14.0943  15.0661  16.9936  24.9862  25.4510

     occupation numbers 
     1.0000   1.0010   0.9654   0.0000   0.0000   0.0000   0.0000   0.0000

          k =-0.1667 0.7500-0.3333 (   472 PWs)   bands (ev):

    10.8598  11.4943  12.1433  14.3674  15.1575  18.7314  22.2870  24.6388

     occupation numbers 
     1.0000   1.0000   1.0053   0.0000   0.0000   0.0000   0.0000   0.0000

          k =-0.2500 0.2500 0.2500 (   483 PWs)   bands (ev):

     8.1766  11.9172  11.9172  14.8048  14.8048  15.1696  29.2177  29.2177

     occupation numbers 
     1.0000   1.0000   1.0000   0.0000   0.0000   0.0000   0.0000   0.0000

          k =-0.2500 0.7500-0.2500 (   475 PWs)   bands (ev):

    11.3497  11.3497  11.7926  14.8175  14.8175  20.9797  20.9797  22.9600

     occupation numbers 
     1.0000   1.0000   1.0412   0.0000   0.0000   0.0000   0.0000   0.0000

          k =-0.3333 0.3333 0.2500 (   478 PWs)   bands (ev):

     9.4495  11.6351  11.7059  14.8125  14.9778  16.1924  26.1156  28.0908

     occupation numbers 
     1.0000   1.0000   1.0075   0.0000   0.0000   0.0000   0.0000   0.0000

          k = 0.5833-0.5833 0.2500 (   485 PWs)   bands (ev):

    10.2554  11.4604  11.9297  14.8643  15.0783  17.3548  23.1026  27.3700

     occupation numbers 
     1.0000   1.0000   1.0072   0.0000   0.0000   0.0000   0.0000   0.0000

          k = 0.5833-0.6667 0.3333 (   479 PWs)   bands (ev):

    10.4886  11.4383  11.5345  14.9170  15.0581  17.4946  24.8520  25.4405

     occupation numbers 
     1.0000   1.0000   1.0000   0.0000   0.0000   0.0000   0.0000   0.0000

          k = 0.5000-0.5000 0.2500 (   484 PWs)   bands (ev):

    10.4016  11.4016  12.2433  14.8910  15.1113  18.1882  21.5333  27.1212

     occupation numbers 
     1.0000   1.0000   1.0000   0.0000   0.0000   0.0000   0.0000   0.0000

          k = 0.5000-0.5833 0.3333 (   481 PWs)   bands (ev):

    10.8596  11.3661  11.7424  14.9786  15.1037  19.0691  22.3100  24.6687

     occupation numbers 
     1.0000   1.0000   1.0000   0.0000   0.0000   0.0000   0.0000   0.0000

          k = 0.4167-0.5833 0.4167 (   475 PWs)   bands (ev):

    11.0658  11.5142  11.5142  15.0644  15.0644  21.1343  21.1343  23.0200

     occupation numbers 
     1.0000   1.0000   1.0000   0.0000   0.0000   0.0000   0.0000   0.0000

          k = 0.0000 0.0000 0.4167 (   470 PWs)   bands (ev):

     7.9551  12.9887  12.9887  13.0600  13.7799  15.4018  31.3952  32.0916

     occupation numbers 
     1.0000   0.9039   0.4836   0.0000   0.0000   0.0000   0.0000   0.0000

          k = 0.0000-0.0833 0.5000 (   470 PWs)   bands (ev):

     9.0706  12.3066  12.9581  13.4145  14.3568  15.6795  28.3554  30.3567

     occupation numbers 
     1.0000   1.0014   0.4486   0.0000   0.0000   0.0000   0.0000   0.0000

          k = 0.0000-0.1667 0.5833 (   474 PWs)   bands (ev):

    10.0388  11.7710  12.8066  13.7821  15.0829  16.4316  24.8945  28.9674

     occupation numbers 
     1.0000   1.0000   0.7044   0.0000   0.0000   0.0000   0.0000   0.0000

          k = 0.0000-0.2500 0.6667 (   474 PWs)   bands (ev):

    10.5039  11.5851  12.7073  13.8812  15.5729  17.8237  22.1243  28.1596

     occupation numbers 
     1.0000   1.0000   0.8700   0.0000   0.0000   0.0000   0.0000   0.0000

          k =-0.0833-0.0833 0.5833 (   473 PWs)   bands (ev):

     9.9811  11.7620  13.0628  13.6924  14.8126  16.3657  26.9104  27.1921

     occupation numbers 
     1.0000   1.0008   0.2217   0.0000   0.0000   0.0000   0.0000   0.0000

          k =-0.0833-0.1667 0.6667 (   473 PWs)   bands (ev):

    10.6129  11.3484  12.9118  14.0492  15.2456  17.8439  23.7581  26.0773

     occupation numbers 
     1.0000   1.0000   0.4392   0.0000   0.0000   0.0000   0.0000   0.0000

          k =-0.0833 0.7500-0.2500 (   472 PWs)   bands (ev):

    10.8062  11.2441  12.8138  14.1510  15.4542  19.3132  21.7036  25.6981

     occupation numbers 
     1.0000   1.0000   0.5965   0.0000   0.0000   0.0000   0.0000   0.0000

          k =-0.1667 0.8333-0.2500 (   471 PWs)   bands (ev):

    10.9793  11.0782  12.7057  14.6212  15.1476  19.9588  22.6423  23.4852

     occupation numbers 
     1.0000   1.0000   0.6390   0.0000   0.0000   0.0000   0.0000   0.0000

          k = 0.5833-0.5833 0.4167 (   483 PWs)   bands (ev):

    11.2245  11.3355  11.3355  15.0813  15.0813  19.1462  24.1119  24.1119

     occupation numbers 
     1.0000   1.0000   1.0000   0.0000   0.0000   0.0000   0.0000   0.0000

          k = 0.5000-0.5000 0.4167 (   478 PWs)   bands (ev):

    11.2304  11.3064  11.5419  15.0978  15.1314  20.8379  22.0353  23.8610

     occupation numbers 
     1.0000   1.0000   1.0000   0.0000   0.0000   0.0000   0.0000   0.0000

          k = 0.0000 0.0000 0.5833 (   474 PWs)   bands (ev):

     9.8542  11.8645  13.5089  13.5089  14.4561  16.2009  28.4445  28.4445

     occupation numbers 
     1.0000   1.0000  -0.0877   0.0000   0.0000   0.0000   0.0000   0.0000

          k = 0.0000-0.0833 0.6667 (   471 PWs)   bands (ev):

    10.4100  11.3238  13.6508  13.8834  14.9991  17.3281  25.5705  26.9246

     occupation numbers 
     1.0000   1.0000  -0.0799   0.0000   0.0000   0.0000   0.0000   0.0000

          k = 0.0000-0.1667 0.7500 (   468 PWs)   bands (ev):

    10.6960  10.9840  13.6296  14.0522  15.4928  19.2188  22.5952  26.0356

     occupation numbers 
     1.0000   1.0000  -0.0279   0.0000   0.0000   0.0000   0.0000   0.0000

          k =-0.0833-0.0833 0.7500 (   468 PWs)   bands (ev):

    10.6156  10.9239  13.7346  14.4647  15.2620  19.0357  24.3256  24.5693

     occupation numbers 
     1.0000   1.0000  -0.0543   0.0000   0.0000   0.0000   0.0000   0.0000

          k =-0.0833 0.8333-0.1667 (   470 PWs)   bands (ev):

    10.7152  10.7329  13.7050  14.7372  15.3812  20.9651  22.0927  24.0356

     occupation numbers 
     1.0000   1.0000  -0.0334   0.0000   0.0000   0.0000   0.0000   0.0000

          k = 0.0000 0.0000 0.7500 (   474 PWs)   bands (ev):

    10.4753  10.8754  14.4048  14.4048  15.0577  18.6555  25.2709  25.2709

     occupation numbers 
     1.0000   1.0000  -0.0381   0.0000   0.0000   0.0000   0.0000   0.0000

          k = 0.0000-0.0833 0.8333 (   480 PWs)   bands (ev):

    10.4746  10.5750  14.6140  14.7534  15.4252  20.6190  23.1879  24.2783

     occupation numbers 
     1.0000   1.0000  -0.0325   0.0000   0.0000   0.0000   0.0000   0.0000

          k =-0.0833 0.9167-0.0833 (   478 PWs)   bands (ev):

    10.4269  10.4269  14.7041  15.3224  15.3224  22.4687  22.4687  22.9594

     occupation numbers 
     1.0000   1.0000  -0.0181   0.0000   0.0000   0.0000   0.0000   0.0000

          k = 0.0000 0.0000 0.9167 (   486 PWs)   bands (ev):

    10.2994  10.3254  15.3003  15.3003  15.4115  22.0804  23.1911  23.1911

     occupation numbers 
     1.0000   1.0000  -0.0014   0.0000   0.0000   0.0000   0.0000   0.0000

     the Fermi energy is    12.8478 ev
     (compare with:    12.9096 eV, computed in scf)

     Writing all to output data dir ./output/fe.save/ :
     XML data file, pseudopotentials, collected wavefunctions

     init_run     :      0.65s CPU      0.70s WALL (       1 calls)
     electrons    :     10.99s CPU     11.78s WALL (       1 calls)

     Called by init_run:
     wfcinit      :      0.00s CPU      0.00s WALL (       1 calls)
     wfcinit:atom :      0.01s CPU      0.02s WALL (     136 calls)
     wfcinit:wfcr :      0.43s CPU      0.47s WALL (     136 calls)
     potinit      :      0.14s CPU      0.15s WALL (       1 calls)
     hinit0       :      0.46s CPU      0.48s WALL (       1 calls)

     Called by electrons:
     c_bands      :     10.68s CPU     11.45s WALL (       1 calls)
     v_of_rho     :      0.03s CPU      0.03s WALL (       1 calls)
     v_h          :      0.00s CPU      0.00s WALL (       1 calls)
     v_xc         :      0.03s CPU      0.03s WALL (       1 calls)
     newd         :      0.04s CPU      0.05s WALL (       1 calls)

     Called by c_bands:
     init_us_2    :      0.02s CPU      0.02s WALL (     136 calls)
     cegterg      :     10.12s CPU     10.86s WALL (     286 calls)

     Called by sum_band:

     Called by *egterg:
     cdiaghg      :      0.47s CPU      0.51s WALL (    4426 calls)
     cegterg:over :      0.68s CPU      0.73s WALL (    4290 calls)
     cegterg:upda :      0.39s CPU      0.42s WALL (    4290 calls)
     cegterg:last :      1.09s CPU      1.17s WALL (    3107 calls)
     h_psi        :      7.14s CPU      7.67s WALL (    4712 calls)
     s_psi        :      0.48s CPU      0.51s WALL (    4712 calls)
     g_psi        :      0.07s CPU      0.07s WALL (    4290 calls)

     Called by h_psi:
     h_psi:calbec :      0.48s CPU      0.51s WALL (    4712 calls)
     vloc_psi     :      6.13s CPU      6.58s WALL (    4712 calls)
     add_vuspsi   :      0.48s CPU      0.51s WALL (    4712 calls)

     General routines
     calbec       :      0.46s CPU      0.50s WALL (    4712 calls)
     fft          :      0.10s CPU      0.11s WALL (      23 calls)
     ffts         :      0.11s CPU      0.11s WALL (       2 calls)
     fftw         :      5.13s CPU      5.51s WALL (   50914 calls)
     interpolate  :      0.11s CPU      0.11s WALL (       2 calls)
     davcio       :      0.02s CPU      0.03s WALL (     272 calls)

     Parallel routines

     PWSCF        :     11.90s CPU     12.78s WALL


   This run was terminated on:  10:56:11  17Apr2025            

=------------------------------------------------------------------------------=
   JOB DONE.
=------------------------------------------------------------------------------=
