
     Program PWSCF v.7.4 starts on 17Apr2025 at 10: 9:44 

     This program is part of the open-source Quantum ESPRESSO suite
     for quantum simulation of materials; please cite
         "P. Giannozzi et al., J. Phys.:Condens. Matter 21 395502 (2009);
         "P. Giannozzi et al., J. Phys.:Condens. Matter 29 465901 (2017);
         "P. Giannozzi et al., J. Chem. Phys. 152 154105 (2020);
          URL http://www.quantum-espresso.org", 
     in publications or presentations arising from this work. More details at
     http://www.quantum-espresso.org/quote

     Parallel version (MPI), running on     4 processors

     MPI processes distributed on     1 nodes
     3054 MiB available memory on the printing compute node when the environment starts

     Reading input from pw.scf.fe_fm.in

     Current dimensions of program PWSCF are:
     Max number of different atomic species (ntypx) = 10
     Max number of k-points (npk) =  40000
     Max angular momentum in pseudopotentials (lmaxx) =  4
     file Fe.pbe-nd-rrkjus.UPF: wavefunction(s)  4S renormalized

     R & G space division:  proc/nbgrp/npool/nimage =       4
     Subspace diagonalization in iterative solution of the eigenvalue problem:
     a serial algorithm will be used


     Parallelization info
     --------------------
     sticks:   dense  smooth     PW     G-vecs:    dense   smooth      PW
     Min          83      42     15                  951      352      79
     Max          84      43     16                  952      353      81
     Sum         333     169     63                 3805     1409     321

     Using Slab Decomposition



     bravais-lattice index     =            3
     lattice parameter (alat)  =       5.4200  a.u.
     unit-cell volume          =      79.6100 (a.u.)^3
     number of atoms/cell      =            1
     number of atomic types    =            1
     number of electrons       =         8.00
     number of Kohn-Sham states=            8
     kinetic-energy cutoff     =      25.0000  Ry
     charge density cutoff     =     200.0000  Ry
     scf convergence threshold =      1.0E-06
     mixing beta               =       0.7000
     number of iterations used =            8  plain     mixing
     Exchange-correlation=  SLA  PW   PBE  PBE
                           (   1   4   3   4   0   0   0)

     celldm(1)=   5.420000  celldm(2)=   0.000000  celldm(3)=   0.000000
     celldm(4)=   0.000000  celldm(5)=   0.000000  celldm(6)=   0.000000

     crystal axes: (cart. coord. in units of alat)
               a(1) = (   0.500000   0.500000   0.500000 )  
               a(2) = (  -0.500000   0.500000   0.500000 )  
               a(3) = (  -0.500000  -0.500000   0.500000 )  

     reciprocal axes: (cart. coord. in units 2 pi/alat)
               b(1) = (  1.000000  0.000000  1.000000 )  
               b(2) = ( -1.000000  1.000000  0.000000 )  
               b(3) = (  0.000000 -1.000000  1.000000 )  


     PseudoPot. # 1 for Fe read from file:
     ../../SOURCE/q-e-qe-7.4/pseudo/Fe.pbe-nd-rrkjus.UPF
     MD5 check sum: 398036227a04b607635f6f5e8dfd8242
     Pseudo is Ultrasoft + core correction, Zval =  8.0
     Generated by new atomic code, or converted to UPF format
     Using radial grid of  957 points,  6 beta functions with: 
                l(1) =   0
                l(2) =   0
                l(3) =   1
                l(4) =   1
                l(5) =   2
                l(6) =   2
     Q(r) pseudized with 0 coefficients 


     atomic species   valence    mass     pseudopotential
     Fe                8.00     1.00000     Fe( 1.00)

     Starting magnetic structure 
     atomic species   magnetization
     Fe              0.600

     48 Sym. Ops., with inversion, found


                                    s                        frac. trans.

      isym =  1     identity                                     

 cryst.   s( 1) = (     1          0          0      )
                  (     0          1          0      )
                  (     0          0          1      )

 cart.    s( 1) = (  1.0000000  0.0000000  0.0000000 )
                  (  0.0000000  1.0000000  0.0000000 )
                  (  0.0000000  0.0000000  1.0000000 )


      isym =  2     180 deg rotation - cart. axis [0,0,1]        

 cryst.   s( 2) = (     0          0          1      )
                  (     1         -1          1      )
                  (     1          0          0      )

 cart.    s( 2) = ( -1.0000000  0.0000000  0.0000000 )
                  (  0.0000000 -1.0000000  0.0000000 )
                  (  0.0000000  0.0000000  1.0000000 )


      isym =  3     180 deg rotation - cart. axis [0,1,0]        

 cryst.   s( 3) = (    -1          1         -1      )
                  (     0          0         -1      )
                  (     0         -1          0      )

 cart.    s( 3) = ( -1.0000000  0.0000000  0.0000000 )
                  (  0.0000000  1.0000000  0.0000000 )
                  (  0.0000000  0.0000000 -1.0000000 )


      isym =  4     180 deg rotation - cart. axis [1,0,0]        

 cryst.   s( 4) = (     0         -1          0      )
                  (    -1          0          0      )
                  (    -1          1         -1      )

 cart.    s( 4) = (  1.0000000  0.0000000  0.0000000 )
                  (  0.0000000 -1.0000000  0.0000000 )
                  (  0.0000000  0.0000000 -1.0000000 )


      isym =  5     180 deg rotation - cart. axis [1,1,0]        

 cryst.   s( 5) = (     0          0         -1      )
                  (     0         -1          0      )
                  (    -1          0          0      )

 cart.    s( 5) = (  0.0000000  1.0000000  0.0000000 )
                  (  1.0000000  0.0000000  0.0000000 )
                  (  0.0000000  0.0000000 -1.0000000 )


      isym =  6     180 deg rotation - cart. axis [1,-1,0]       

 cryst.   s( 6) = (    -1          0          0      )
                  (    -1          1         -1      )
                  (     0          0         -1      )

 cart.    s( 6) = (  0.0000000 -1.0000000  0.0000000 )
                  ( -1.0000000  0.0000000  0.0000000 )
                  (  0.0000000  0.0000000 -1.0000000 )


      isym =  7      90 deg rotation - cart. axis [0,0,-1]       

 cryst.   s( 7) = (     1         -1          1      )
                  (     1          0          0      )
                  (     0          1          0      )

 cart.    s( 7) = (  0.0000000  1.0000000  0.0000000 )
                  ( -1.0000000  0.0000000  0.0000000 )
                  (  0.0000000  0.0000000  1.0000000 )


      isym =  8      90 deg rotation - cart. axis [0,0,1]        

 cryst.   s( 8) = (     0          1          0      )
                  (     0          0          1      )
                  (     1         -1          1      )

 cart.    s( 8) = (  0.0000000 -1.0000000  0.0000000 )
                  (  1.0000000  0.0000000  0.0000000 )
                  (  0.0000000  0.0000000  1.0000000 )


      isym =  9     180 deg rotation - cart. axis [1,0,1]        

 cryst.   s( 9) = (     1         -1          1      )
                  (     0         -1          0      )
                  (     0          0         -1      )

 cart.    s( 9) = (  0.0000000  0.0000000  1.0000000 )
                  (  0.0000000 -1.0000000  0.0000000 )
                  (  1.0000000  0.0000000  0.0000000 )


      isym = 10     180 deg rotation - cart. axis [-1,0,1]       

 cryst.   s(10) = (    -1          0          0      )
                  (     0          0          1      )
                  (     0          1          0      )

 cart.    s(10) = (  0.0000000  0.0000000 -1.0000000 )
                  (  0.0000000 -1.0000000  0.0000000 )
                  ( -1.0000000  0.0000000  0.0000000 )


      isym = 11      90 deg rotation - cart. axis [0,1,0]        

 cryst.   s(11) = (     0          0         -1      )
                  (     1          0          0      )
                  (     1         -1          1      )

 cart.    s(11) = (  0.0000000  0.0000000  1.0000000 )
                  (  0.0000000  1.0000000  0.0000000 )
                  ( -1.0000000  0.0000000  0.0000000 )


      isym = 12      90 deg rotation - cart. axis [0,-1,0]       

 cryst.   s(12) = (     0          1          0      )
                  (    -1          1         -1      )
                  (    -1          0          0      )

 cart.    s(12) = (  0.0000000  0.0000000 -1.0000000 )
                  (  0.0000000  1.0000000  0.0000000 )
                  (  1.0000000  0.0000000  0.0000000 )


      isym = 13     180 deg rotation - cart. axis [0,1,1]        

 cryst.   s(13) = (     0          1          0      )
                  (     1          0          0      )
                  (     0          0         -1      )

 cart.    s(13) = ( -1.0000000  0.0000000  0.0000000 )
                  (  0.0000000  0.0000000  1.0000000 )
                  (  0.0000000  1.0000000  0.0000000 )


      isym = 14     180 deg rotation - cart. axis [0,1,-1]       

 cryst.   s(14) = (    -1          0          0      )
                  (     0         -1          0      )
                  (     1         -1          1      )

 cart.    s(14) = ( -1.0000000  0.0000000  0.0000000 )
                  (  0.0000000  0.0000000 -1.0000000 )
                  (  0.0000000 -1.0000000  0.0000000 )


      isym = 15      90 deg rotation - cart. axis [-1,0,0]       

 cryst.   s(15) = (     0          0         -1      )
                  (    -1          1         -1      )
                  (     0          1          0      )

 cart.    s(15) = (  1.0000000  0.0000000  0.0000000 )
                  (  0.0000000  0.0000000  1.0000000 )
                  (  0.0000000 -1.0000000  0.0000000 )


      isym = 16      90 deg rotation - cart. axis [1,0,0]        

 cryst.   s(16) = (     1         -1          1      )
                  (     0          0          1      )
                  (    -1          0          0      )

 cart.    s(16) = (  1.0000000  0.0000000  0.0000000 )
                  (  0.0000000  0.0000000 -1.0000000 )
                  (  0.0000000  1.0000000  0.0000000 )


      isym = 17     120 deg rotation - cart. axis [-1,-1,-1]     

 cryst.   s(17) = (     1          0          0      )
                  (     0          0         -1      )
                  (    -1          1         -1      )

 cart.    s(17) = (  0.0000000  1.0000000  0.0000000 )
                  (  0.0000000  0.0000000  1.0000000 )
                  (  1.0000000  0.0000000  0.0000000 )


      isym = 18     120 deg rotation - cart. axis [-1,1,1]       

 cryst.   s(18) = (    -1          1         -1      )
                  (     0          1          0      )
                  (     1          0          0      )

 cart.    s(18) = (  0.0000000 -1.0000000  0.0000000 )
                  (  0.0000000  0.0000000  1.0000000 )
                  ( -1.0000000  0.0000000  0.0000000 )


      isym = 19     120 deg rotation - cart. axis [1,1,-1]       

 cryst.   s(19) = (     0         -1          0      )
                  (     1         -1          1      )
                  (     0          0          1      )

 cart.    s(19) = (  0.0000000  1.0000000  0.0000000 )
                  (  0.0000000  0.0000000 -1.0000000 )
                  ( -1.0000000  0.0000000  0.0000000 )


      isym = 20     120 deg rotation - cart. axis [1,-1,1]       

 cryst.   s(20) = (     0          0          1      )
                  (    -1          0          0      )
                  (     0         -1          0      )

 cart.    s(20) = (  0.0000000 -1.0000000  0.0000000 )
                  (  0.0000000  0.0000000 -1.0000000 )
                  (  1.0000000  0.0000000  0.0000000 )


      isym = 21     120 deg rotation - cart. axis [1,1,1]        

 cryst.   s(21) = (     1          0          0      )
                  (     1         -1          1      )
                  (     0         -1          0      )

 cart.    s(21) = (  0.0000000  0.0000000  1.0000000 )
                  (  1.0000000  0.0000000  0.0000000 )
                  (  0.0000000  1.0000000  0.0000000 )


      isym = 22     120 deg rotation - cart. axis [-1,1,-1]      

 cryst.   s(22) = (     0         -1          0      )
                  (     0          0         -1      )
                  (     1          0          0      )

 cart.    s(22) = (  0.0000000  0.0000000  1.0000000 )
                  ( -1.0000000  0.0000000  0.0000000 )
                  (  0.0000000 -1.0000000  0.0000000 )


      isym = 23     120 deg rotation - cart. axis [1,-1,-1]      

 cryst.   s(23) = (     0          0          1      )
                  (     0          1          0      )
                  (    -1          1         -1      )

 cart.    s(23) = (  0.0000000  0.0000000 -1.0000000 )
                  ( -1.0000000  0.0000000  0.0000000 )
                  (  0.0000000  1.0000000  0.0000000 )


      isym = 24     120 deg rotation - cart. axis [-1,-1,1]      

 cryst.   s(24) = (    -1          1         -1      )
                  (    -1          0          0      )
                  (     0          0          1      )

 cart.    s(24) = (  0.0000000  0.0000000 -1.0000000 )
                  (  1.0000000  0.0000000  0.0000000 )
                  (  0.0000000 -1.0000000  0.0000000 )


      isym = 25     inversion                                    

 cryst.   s(25) = (    -1          0          0      )
                  (     0         -1          0      )
                  (     0          0         -1      )

 cart.    s(25) = ( -1.0000000  0.0000000  0.0000000 )
                  (  0.0000000 -1.0000000  0.0000000 )
                  (  0.0000000  0.0000000 -1.0000000 )


      isym = 26     inv. 180 deg rotation - cart. axis [0,0,1]   

 cryst.   s(26) = (     0          0         -1      )
                  (    -1          1         -1      )
                  (    -1          0          0      )

 cart.    s(26) = (  1.0000000  0.0000000  0.0000000 )
                  (  0.0000000  1.0000000  0.0000000 )
                  (  0.0000000  0.0000000 -1.0000000 )


      isym = 27     inv. 180 deg rotation - cart. axis [0,1,0]   

 cryst.   s(27) = (     1         -1          1      )
                  (     0          0          1      )
                  (     0          1          0      )

 cart.    s(27) = (  1.0000000  0.0000000  0.0000000 )
                  (  0.0000000 -1.0000000  0.0000000 )
                  (  0.0000000  0.0000000  1.0000000 )


      isym = 28     inv. 180 deg rotation - cart. axis [1,0,0]   

 cryst.   s(28) = (     0          1          0      )
                  (     1          0          0      )
                  (     1         -1          1      )

 cart.    s(28) = ( -1.0000000  0.0000000  0.0000000 )
                  (  0.0000000  1.0000000  0.0000000 )
                  (  0.0000000  0.0000000  1.0000000 )


      isym = 29     inv. 180 deg rotation - cart. axis [1,1,0]   

 cryst.   s(29) = (     0          0          1      )
                  (     0          1          0      )
                  (     1          0          0      )

 cart.    s(29) = (  0.0000000 -1.0000000  0.0000000 )
                  ( -1.0000000  0.0000000  0.0000000 )
                  (  0.0000000  0.0000000  1.0000000 )


      isym = 30     inv. 180 deg rotation - cart. axis [1,-1,0]  

 cryst.   s(30) = (     1          0          0      )
                  (     1         -1          1      )
                  (     0          0          1      )

 cart.    s(30) = (  0.0000000  1.0000000  0.0000000 )
                  (  1.0000000  0.0000000  0.0000000 )
                  (  0.0000000  0.0000000  1.0000000 )


      isym = 31     inv.  90 deg rotation - cart. axis [0,0,-1]  

 cryst.   s(31) = (    -1          1         -1      )
                  (    -1          0          0      )
                  (     0         -1          0      )

 cart.    s(31) = (  0.0000000 -1.0000000  0.0000000 )
                  (  1.0000000  0.0000000  0.0000000 )
                  (  0.0000000  0.0000000 -1.0000000 )


      isym = 32     inv.  90 deg rotation - cart. axis [0,0,1]   

 cryst.   s(32) = (     0         -1          0      )
                  (     0          0         -1      )
                  (    -1          1         -1      )

 cart.    s(32) = (  0.0000000  1.0000000  0.0000000 )
                  ( -1.0000000  0.0000000  0.0000000 )
                  (  0.0000000  0.0000000 -1.0000000 )


      isym = 33     inv. 180 deg rotation - cart. axis [1,0,1]   

 cryst.   s(33) = (    -1          1         -1      )
                  (     0          1          0      )
                  (     0          0          1      )

 cart.    s(33) = (  0.0000000  0.0000000 -1.0000000 )
                  (  0.0000000  1.0000000  0.0000000 )
                  ( -1.0000000  0.0000000  0.0000000 )


      isym = 34     inv. 180 deg rotation - cart. axis [-1,0,1]  

 cryst.   s(34) = (     1          0          0      )
                  (     0          0         -1      )
                  (     0         -1          0      )

 cart.    s(34) = (  0.0000000  0.0000000  1.0000000 )
                  (  0.0000000  1.0000000  0.0000000 )
                  (  1.0000000  0.0000000  0.0000000 )


      isym = 35     inv.  90 deg rotation - cart. axis [0,1,0]   

 cryst.   s(35) = (     0          0          1      )
                  (    -1          0          0      )
                  (    -1          1         -1      )

 cart.    s(35) = (  0.0000000  0.0000000 -1.0000000 )
                  (  0.0000000 -1.0000000  0.0000000 )
                  (  1.0000000  0.0000000  0.0000000 )


      isym = 36     inv.  90 deg rotation - cart. axis [0,-1,0]  

 cryst.   s(36) = (     0         -1          0      )
                  (     1         -1          1      )
                  (     1          0          0      )

 cart.    s(36) = (  0.0000000  0.0000000  1.0000000 )
                  (  0.0000000 -1.0000000  0.0000000 )
                  ( -1.0000000  0.0000000  0.0000000 )


      isym = 37     inv. 180 deg rotation - cart. axis [0,1,1]   

 cryst.   s(37) = (     0         -1          0      )
                  (    -1          0          0      )
                  (     0          0          1      )

 cart.    s(37) = (  1.0000000  0.0000000  0.0000000 )
                  (  0.0000000  0.0000000 -1.0000000 )
                  (  0.0000000 -1.0000000  0.0000000 )


      isym = 38     inv. 180 deg rotation - cart. axis [0,1,-1]  

 cryst.   s(38) = (     1          0          0      )
                  (     0          1          0      )
                  (    -1          1         -1      )

 cart.    s(38) = (  1.0000000  0.0000000  0.0000000 )
                  (  0.0000000  0.0000000  1.0000000 )
                  (  0.0000000  1.0000000  0.0000000 )


      isym = 39     inv.  90 deg rotation - cart. axis [-1,0,0]  

 cryst.   s(39) = (     0          0          1      )
                  (     1         -1          1      )
                  (     0         -1          0      )

 cart.    s(39) = ( -1.0000000  0.0000000  0.0000000 )
                  (  0.0000000  0.0000000 -1.0000000 )
                  (  0.0000000  1.0000000  0.0000000 )


      isym = 40     inv.  90 deg rotation - cart. axis [1,0,0]   

 cryst.   s(40) = (    -1          1         -1      )
                  (     0          0         -1      )
                  (     1          0          0      )

 cart.    s(40) = ( -1.0000000  0.0000000  0.0000000 )
                  (  0.0000000  0.0000000  1.0000000 )
                  (  0.0000000 -1.0000000  0.0000000 )


      isym = 41     inv. 120 deg rotation - cart. axis [-1,-1,-1]

 cryst.   s(41) = (    -1          0          0      )
                  (     0          0          1      )
                  (     1         -1          1      )

 cart.    s(41) = (  0.0000000 -1.0000000  0.0000000 )
                  (  0.0000000  0.0000000 -1.0000000 )
                  ( -1.0000000  0.0000000  0.0000000 )


      isym = 42     inv. 120 deg rotation - cart. axis [-1,1,1]  

 cryst.   s(42) = (     1         -1          1      )
                  (     0         -1          0      )
                  (    -1          0          0      )

 cart.    s(42) = (  0.0000000  1.0000000  0.0000000 )
                  (  0.0000000  0.0000000 -1.0000000 )
                  (  1.0000000  0.0000000  0.0000000 )


      isym = 43     inv. 120 deg rotation - cart. axis [1,1,-1]  

 cryst.   s(43) = (     0          1          0      )
                  (    -1          1         -1      )
                  (     0          0         -1      )

 cart.    s(43) = (  0.0000000 -1.0000000  0.0000000 )
                  (  0.0000000  0.0000000  1.0000000 )
                  (  1.0000000  0.0000000  0.0000000 )


      isym = 44     inv. 120 deg rotation - cart. axis [1,-1,1]  

 cryst.   s(44) = (     0          0         -1      )
                  (     1          0          0      )
                  (     0          1          0      )

 cart.    s(44) = (  0.0000000  1.0000000  0.0000000 )
                  (  0.0000000  0.0000000  1.0000000 )
                  ( -1.0000000  0.0000000  0.0000000 )


      isym = 45     inv. 120 deg rotation - cart. axis [1,1,1]   

 cryst.   s(45) = (    -1          0          0      )
                  (    -1          1         -1      )
                  (     0          1          0      )

 cart.    s(45) = (  0.0000000  0.0000000 -1.0000000 )
                  ( -1.0000000  0.0000000  0.0000000 )
                  (  0.0000000 -1.0000000  0.0000000 )


      isym = 46     inv. 120 deg rotation - cart. axis [-1,1,-1] 

 cryst.   s(46) = (     0          1          0      )
                  (     0          0          1      )
                  (    -1          0          0      )

 cart.    s(46) = (  0.0000000  0.0000000 -1.0000000 )
                  (  1.0000000  0.0000000  0.0000000 )
                  (  0.0000000  1.0000000  0.0000000 )


      isym = 47     inv. 120 deg rotation - cart. axis [1,-1,-1] 

 cryst.   s(47) = (     0          0         -1      )
                  (     0         -1          0      )
                  (     1         -1          1      )

 cart.    s(47) = (  0.0000000  0.0000000  1.0000000 )
                  (  1.0000000  0.0000000  0.0000000 )
                  (  0.0000000 -1.0000000  0.0000000 )


      isym = 48     inv. 120 deg rotation - cart. axis [-1,-1,1] 

 cryst.   s(48) = (     1         -1          1      )
                  (     1          0          0      )
                  (     0          0         -1      )

 cart.    s(48) = (  0.0000000  0.0000000  1.0000000 )
                  ( -1.0000000  0.0000000  0.0000000 )
                  (  0.0000000  1.0000000  0.0000000 )


     point group O_h (m-3m) 
     there are 10 classes
     the character table:

       E     8C3   3C2   6C4   6C2'  i     8S6   3s_h  6S4   6s_d 
A_1g   1.00  1.00  1.00  1.00  1.00  1.00  1.00  1.00  1.00  1.00
A_2g   1.00  1.00  1.00 -1.00 -1.00  1.00  1.00  1.00 -1.00 -1.00
E_g    2.00 -1.00  2.00  0.00  0.00  2.00 -1.00  2.00  0.00  0.00
T_1g   3.00  0.00 -1.00  1.00 -1.00  3.00  0.00 -1.00  1.00 -1.00
T_2g   3.00  0.00 -1.00 -1.00  1.00  3.00  0.00 -1.00 -1.00  1.00
A_1u   1.00  1.00  1.00  1.00  1.00 -1.00 -1.00 -1.00 -1.00 -1.00
A_2u   1.00  1.00  1.00 -1.00 -1.00 -1.00 -1.00 -1.00  1.00  1.00
E_u    2.00 -1.00  2.00  0.00  0.00 -2.00  1.00 -2.00  0.00  0.00
T_1u   3.00  0.00 -1.00  1.00 -1.00 -3.00  0.00  1.00 -1.00  1.00
T_2u   3.00  0.00 -1.00 -1.00  1.00 -3.00  0.00  1.00  1.00 -1.00

     the symmetry operations in each class and the name of the first element:

     E        1
          identity                                               
     8C3     17   19   20   18   24   21   22   23
          120 deg rotation - cart. axis [-1,-1,-1]               
     3C2      2    4    3
          180 deg rotation - cart. axis [0,0,1]                  
     6C4      7    8   15   16   12   11
           90 deg rotation - cart. axis [0,0,-1]                 
     6C2'     5    6   14   13   10    9
          180 deg rotation - cart. axis [1,1,0]                  
     i       25
          inversion                                              
     8S6     41   43   44   42   48   45   46   47
          inv. 120 deg rotation - cart. axis [-1,-1,-1]          
     3s_h    26   28   27
          inv. 180 deg rotation - cart. axis [0,0,1]             
     6S4     31   32   39   40   36   35
          inv.  90 deg rotation - cart. axis [0,0,-1]            
     6s_d    29   30   38   37   34   33
          inv. 180 deg rotation - cart. axis [1,1,0]             

   Cartesian axes

     site n.     atom                  positions (alat units)
         1        Fe     tau(   1) = (   0.0000000   0.0000000   0.0000000  )

   Crystallographic axes

     site n.     atom                  positions (cryst. coord.)
         1        Fe     tau(   1) = (  0.0000000  0.0000000  0.0000000  )

     number of k points=    26  Marzari-Vanderbilt smearing, width (Ry)=  0.0100
                       cart. coord. in units 2pi/alat
        k(    1) = (   0.0000000   0.0000000   0.1250000), wk =   0.0117188
        k(    2) = (   0.0000000  -0.1250000   0.2500000), wk =   0.0468750
        k(    3) = (   0.0000000  -0.2500000   0.3750000), wk =   0.0468750
        k(    4) = (   0.0000000  -0.3750000   0.5000000), wk =   0.0468750
        k(    5) = (  -0.1250000   0.1250000   0.1250000), wk =   0.0156250
        k(    6) = (  -0.1250000  -0.1250000   0.3750000), wk =   0.0468750
        k(    7) = (  -0.1250000  -0.2500000   0.5000000), wk =   0.0937500
        k(    8) = (  -0.1250000   0.6250000  -0.3750000), wk =   0.0468750
        k(    9) = (  -0.2500000   0.2500000   0.1250000), wk =   0.0468750
        k(   10) = (  -0.2500000   0.7500000  -0.3750000), wk =   0.0468750
        k(   11) = (  -0.3750000   0.3750000   0.1250000), wk =   0.0468750
        k(   12) = (  -0.3750000   0.2500000   0.2500000), wk =   0.0468750
        k(   13) = (   0.5000000  -0.5000000   0.1250000), wk =   0.0234375
        k(   14) = (   0.5000000  -0.6250000   0.2500000), wk =   0.0937500
        k(   15) = (   0.3750000  -0.6250000   0.3750000), wk =   0.0156250
        k(   16) = (   0.0000000   0.0000000   0.3750000), wk =   0.0117188
        k(   17) = (   0.0000000  -0.1250000   0.5000000), wk =   0.0468750
        k(   18) = (   0.0000000  -0.2500000   0.6250000), wk =   0.0468750
        k(   19) = (  -0.1250000  -0.1250000   0.6250000), wk =   0.0468750
        k(   20) = (  -0.1250000   0.7500000  -0.2500000), wk =   0.0468750
        k(   21) = (   0.6250000  -0.6250000   0.3750000), wk =   0.0156250
        k(   22) = (   0.5000000  -0.5000000   0.3750000), wk =   0.0234375
        k(   23) = (   0.0000000   0.0000000   0.6250000), wk =   0.0117188
        k(   24) = (   0.0000000  -0.1250000   0.7500000), wk =   0.0468750
        k(   25) = (  -0.1250000   0.8750000  -0.1250000), wk =   0.0156250
        k(   26) = (   0.0000000   0.0000000   0.8750000), wk =   0.0117188

                       cryst. coord.
        k(    1) = (   0.0625000   0.0625000   0.0625000), wk =   0.0117188
        k(    2) = (   0.0625000   0.0625000   0.1875000), wk =   0.0468750
        k(    3) = (   0.0625000   0.0625000   0.3125000), wk =   0.0468750
        k(    4) = (   0.0625000   0.0625000   0.4375000), wk =   0.0468750
        k(    5) = (   0.0625000   0.1875000   0.0625000), wk =   0.0156250
        k(    6) = (   0.0625000   0.1875000   0.3125000), wk =   0.0468750
        k(    7) = (   0.0625000   0.1875000   0.4375000), wk =   0.0937500
        k(    8) = (   0.0625000   0.1875000  -0.4375000), wk =   0.0468750
        k(    9) = (   0.0625000   0.3125000   0.0625000), wk =   0.0468750
        k(   10) = (   0.0625000   0.3125000  -0.4375000), wk =   0.0468750
        k(   11) = (   0.0625000   0.4375000   0.0625000), wk =   0.0468750
        k(   12) = (   0.0625000   0.4375000   0.1875000), wk =   0.0468750
        k(   13) = (   0.0625000  -0.4375000   0.0625000), wk =   0.0234375
        k(   14) = (   0.0625000  -0.4375000   0.1875000), wk =   0.0937500
        k(   15) = (   0.0625000  -0.3125000   0.3125000), wk =   0.0156250
        k(   16) = (   0.1875000   0.1875000   0.1875000), wk =   0.0117188
        k(   17) = (   0.1875000   0.1875000   0.3125000), wk =   0.0468750
        k(   18) = (   0.1875000   0.1875000   0.4375000), wk =   0.0468750
        k(   19) = (   0.1875000   0.3125000   0.4375000), wk =   0.0468750
        k(   20) = (   0.1875000   0.3125000  -0.4375000), wk =   0.0468750
        k(   21) = (   0.1875000  -0.4375000   0.1875000), wk =   0.0156250
        k(   22) = (   0.1875000  -0.3125000   0.1875000), wk =   0.0234375
        k(   23) = (   0.3125000   0.3125000   0.3125000), wk =   0.0117188
        k(   24) = (   0.3125000   0.3125000   0.4375000), wk =   0.0468750
        k(   25) = (   0.3125000   0.4375000  -0.4375000), wk =   0.0156250
        k(   26) = (   0.4375000   0.4375000   0.4375000), wk =   0.0117188

     Dense  grid:     3805 G-vectors     FFT dimensions: (  24,  24,  24)

     Smooth grid:     1409 G-vectors     FFT dimensions: (  15,  15,  15)

     Dynamical RAM for                 wfc:       0.01 MB

     Dynamical RAM for     wfc (w. buffer):       0.27 MB

     Dynamical RAM for           str. fact:       0.01 MB

     Dynamical RAM for           local pot:       0.00 MB

     Dynamical RAM for          nlocal pot:       0.01 MB

     Dynamical RAM for                qrad:       1.14 MB

     Dynamical RAM for          rho,v,vnew:       0.25 MB

     Dynamical RAM for               rhoin:       0.08 MB

     Dynamical RAM for            rho*nmix:       0.46 MB

     Dynamical RAM for           G-vectors:       0.06 MB

     Dynamical RAM for          h,s,v(r/c):       0.01 MB

     Dynamical RAM for          <psi|beta>:       0.00 MB

     Dynamical RAM for                 psi:       0.01 MB

     Dynamical RAM for                hpsi:       0.01 MB

     Dynamical RAM for                spsi:       0.01 MB

     Dynamical RAM for      wfcinit/wfcrot:       0.01 MB

     Dynamical RAM for           addusdens:       2.73 MB

     Estimated static dynamical RAM per process >       2.01 MB

     Estimated max dynamical RAM per process >       5.20 MB

     Estimated total dynamical RAM >      20.79 MB

     Check: negative core charge=   -0.000022
     Generating pointlists ...
     new r_m :   0.3572 (alat units)  1.9362 (a.u.) for type    1

     Initial potential from superposition of free atoms

     starting charge       7.9994, renormalised to       8.0000
     Starting wfcs are    6 randomized atomic wfcs +    2 random wfcs

     total cpu time spent up to now is        0.4 secs

     Self-consistent Calculation

     iteration #  1     ecut=    25.00 Ry     beta= 0.70
     Davidson diagonalization with overlap

---- Real-time Memory Report at c_bands before calling an iterative solver
            40 MiB given to the printing process from OS
             0 MiB allocation reported by mallinfo(arena+hblkhd)
          2996 MiB available memory on the node where the printing process lives
------------------
     ethr =  1.00E-02,  avg # of iterations =  4.4

     total cpu time spent up to now is        0.6 secs

     total energy              =     -55.65004940 Ry
     estimated scf accuracy    <       0.31740257 Ry

     total magnetization       =     2.94 Bohr mag/cell
     absolute magnetization    =     2.94 Bohr mag/cell

     iteration #  2     ecut=    25.00 Ry     beta= 0.70
     Davidson diagonalization with overlap

---- Real-time Memory Report at c_bands before calling an iterative solver
            42 MiB given to the printing process from OS
             0 MiB allocation reported by mallinfo(arena+hblkhd)
          2987 MiB available memory on the node where the printing process lives
------------------
     ethr =  3.97E-03,  avg # of iterations =  2.0

     total cpu time spent up to now is        0.7 secs

     total energy              =     -55.73170886 Ry
     estimated scf accuracy    <       0.31391022 Ry

     total magnetization       =     2.56 Bohr mag/cell
     absolute magnetization    =     2.61 Bohr mag/cell

     iteration #  3     ecut=    25.00 Ry     beta= 0.70
     Davidson diagonalization with overlap

---- Real-time Memory Report at c_bands before calling an iterative solver
            42 MiB given to the printing process from OS
             0 MiB allocation reported by mallinfo(arena+hblkhd)
          2987 MiB available memory on the node where the printing process lives
------------------
     ethr =  3.92E-03,  avg # of iterations =  1.1

     total cpu time spent up to now is        0.8 secs

     total energy              =     -55.79869325 Ry
     estimated scf accuracy    <       0.00256068 Ry

     total magnetization       =     2.58 Bohr mag/cell
     absolute magnetization    =     2.64 Bohr mag/cell

     iteration #  4     ecut=    25.00 Ry     beta= 0.70
     Davidson diagonalization with overlap

---- Real-time Memory Report at c_bands before calling an iterative solver
            42 MiB given to the printing process from OS
             0 MiB allocation reported by mallinfo(arena+hblkhd)
          2987 MiB available memory on the node where the printing process lives
------------------
     ethr =  3.20E-05,  avg # of iterations =  4.6

     total cpu time spent up to now is        0.9 secs

     total energy              =     -55.80173729 Ry
     estimated scf accuracy    <       0.00015093 Ry

     total magnetization       =     2.40 Bohr mag/cell
     absolute magnetization    =     2.56 Bohr mag/cell

     iteration #  5     ecut=    25.00 Ry     beta= 0.70
     Davidson diagonalization with overlap

---- Real-time Memory Report at c_bands before calling an iterative solver
            42 MiB given to the printing process from OS
             0 MiB allocation reported by mallinfo(arena+hblkhd)
          2987 MiB available memory on the node where the printing process lives
------------------
     ethr =  1.89E-06,  avg # of iterations =  5.4

     total cpu time spent up to now is        1.1 secs

     total energy              =     -55.80187540 Ry
     estimated scf accuracy    <       0.00002790 Ry

     total magnetization       =     2.36 Bohr mag/cell
     absolute magnetization    =     2.53 Bohr mag/cell

     iteration #  6     ecut=    25.00 Ry     beta= 0.70
     Davidson diagonalization with overlap

---- Real-time Memory Report at c_bands before calling an iterative solver
            42 MiB given to the printing process from OS
             0 MiB allocation reported by mallinfo(arena+hblkhd)
          2987 MiB available memory on the node where the printing process lives
------------------
     ethr =  3.49E-07,  avg # of iterations =  1.9

     total cpu time spent up to now is        1.2 secs

     total energy              =     -55.80183459 Ry
     estimated scf accuracy    <       0.00001355 Ry

     total magnetization       =     2.34 Bohr mag/cell
     absolute magnetization    =     2.51 Bohr mag/cell

     iteration #  7     ecut=    25.00 Ry     beta= 0.70
     Davidson diagonalization with overlap

---- Real-time Memory Report at c_bands before calling an iterative solver
            42 MiB given to the printing process from OS
             0 MiB allocation reported by mallinfo(arena+hblkhd)
          2987 MiB available memory on the node where the printing process lives
------------------
     ethr =  1.69E-07,  avg # of iterations =  2.6

     total cpu time spent up to now is        1.3 secs

     total energy              =     -55.80194027 Ry
     estimated scf accuracy    <       0.00000154 Ry

     total magnetization       =     2.30 Bohr mag/cell
     absolute magnetization    =     2.46 Bohr mag/cell

     iteration #  8     ecut=    25.00 Ry     beta= 0.70
     Davidson diagonalization with overlap

---- Real-time Memory Report at c_bands before calling an iterative solver
            42 MiB given to the printing process from OS
             0 MiB allocation reported by mallinfo(arena+hblkhd)
          2987 MiB available memory on the node where the printing process lives
------------------
     ethr =  1.92E-08,  avg # of iterations =  3.7

     Magnetic moment per site  (integrated on atomic sphere of radius R)
     atom   1 (R=0.357)  charge=  6.4878  magn=  2.3646

     total cpu time spent up to now is        1.5 secs

     End of self-consistent calculation

 ------ SPIN UP ------------


          k = 0.0000 0.0000 0.1250 (   169 PWs)   bands (ev):

     5.0582  10.6137  10.6137  10.6967  11.6083  11.7950  35.6579  36.9569

     occupation numbers 
     1.0000   1.0000   1.0000   1.0000   1.0000   1.0000   0.0000   0.0000

          k = 0.0000-0.1250 0.2500 (   168 PWs)   bands (ev):

     6.2289  10.3608  10.5421  11.2846  11.3907  11.8894  31.3313  34.6261

     occupation numbers 
     1.0000   1.0000   1.0000   1.0000   1.0000   1.0000   0.0000   0.0000

          k = 0.0000-0.2500 0.3750 (   169 PWs)   bands (ev):

     7.8230   9.9845  10.6100  11.6119  12.0778  12.2494  25.6440  32.2808

     occupation numbers 
     1.0000   1.0000   1.0000   1.0000   1.0000   1.0000   0.0000   0.0000

          k = 0.0000-0.3750 0.5000 (   168 PWs)   bands (ev):

     8.2400   9.7290  11.3237  11.7577  13.0250  13.5613  20.9176  30.9425

     occupation numbers 
     1.0000   1.0000   1.0000   1.0000   0.0564   0.0000   0.0000   0.0000

          k =-0.1250 0.1250 0.1250 (   171 PWs)   bands (ev):

     5.6638  10.4197  10.4197  11.1849  11.6805  11.6805  33.8178  33.8178

     occupation numbers 
     1.0000   1.0000   1.0000   1.0000   1.0000   1.0000   0.0000   0.0000

          k =-0.1250-0.1250 0.3750 (   167 PWs)   bands (ev):

     7.6484  10.1414  10.3575  11.2897  11.9604  12.2951  28.5966  29.5413

     occupation numbers 
     1.0000   1.0000   1.0000   1.0000   1.0000   1.0000   0.0000   0.0000

          k =-0.1250-0.2500 0.5000 (   170 PWs)   bands (ev):

     8.6457   9.8598  10.4213  11.5839  12.3333  14.0473  23.4911  27.3561

     occupation numbers 
     1.0000   1.0000   1.0000   1.0000   1.0000   0.0000   0.0000   0.0000

          k =-0.1250 0.6250-0.3750 (   170 PWs)   bands (ev):

     8.6647   9.8588  10.5736  11.6773  12.6899  16.0945  20.1152  26.6755

     occupation numbers 
     1.0000   1.0000   1.0000   1.0000   1.0723   0.0000   0.0000   0.0000

          k =-0.2500 0.2500 0.1250 (   167 PWs)   bands (ev):

     7.2274  10.0322  10.2334  11.6326  11.7956  12.1655  28.5119  31.5444

     occupation numbers 
     1.0000   1.0000   1.0000   1.0000   1.0000   1.0000   0.0000   0.0000

          k =-0.2500 0.7500-0.3750 (   167 PWs)   bands (ev):

     9.3347   9.5658  10.0929  11.8766  12.3147  17.2733  21.6297  22.8640

     occupation numbers 
     1.0000   1.0000   1.0000   1.0000   1.0000   0.0000   0.0000   0.0000

          k =-0.3750 0.3750 0.1250 (   170 PWs)   bands (ev):

     8.3157   9.7012  11.0271  11.7778  11.8849  13.5681  23.1094  29.8838

     occupation numbers 
     1.0000   1.0000   1.0000   1.0000   1.0000   0.0000   0.0000   0.0000

          k =-0.3750 0.2500 0.2500 (   170 PWs)   bands (ev):

     8.6614   9.7633   9.9728  11.7112  11.9210  13.7610  26.0649  26.8190

     occupation numbers 
     1.0000   1.0000   1.0000   1.0000   1.0000   0.0000   0.0000   0.0000

          k = 0.5000-0.5000 0.1250 (   170 PWs)   bands (ev):

     8.3576   9.5741  11.8343  11.9213  11.9975  15.0066  20.0022  29.2742

     occupation numbers 
     1.0000   1.0000   1.0000   1.0000   1.0000   0.0000   0.0000   0.0000

          k = 0.5000-0.6250 0.2500 (   167 PWs)   bands (ev):

     8.9663   9.6126  10.6014  11.8471  12.0208  16.2212  21.4530  25.2818

     occupation numbers 
     1.0000   1.0000   1.0000   1.0000   1.0000   0.0000   0.0000   0.0000

          k = 0.3750-0.6250 0.3750 (   161 PWs)   bands (ev):

     9.2725   9.9672   9.9672  11.9776  11.9776  19.7133  19.7134  22.0399

     occupation numbers 
     1.0000   1.0000   1.0000   1.0000   1.0000   0.0000   0.0000   0.0000

          k = 0.0000 0.0000 0.3750 (   164 PWs)   bands (ev):

     7.2522  10.6459  10.7638  10.7638  11.2968  12.2427  31.4389  32.4566

     occupation numbers 
     1.0000   1.0000   1.0000   1.0000   1.0000   1.0000   0.0000   0.0000

          k = 0.0000-0.1250 0.5000 (   169 PWs)   bands (ev):

     8.5107   9.9359  10.6320  11.2515  12.1384  13.1237  26.4978  29.9056

     occupation numbers 
     1.0000   1.0000   1.0000   1.0000   1.0000   0.0034   0.0000   0.0000

          k = 0.0000-0.2500 0.6250 (   171 PWs)   bands (ev):

     8.7534   9.8889  10.4438  11.4445  12.9475  15.6527  21.4520  28.3223

     occupation numbers 
     1.0000   1.0000   1.0000   1.0000   0.2547   0.0000   0.0000   0.0000

          k =-0.1250-0.1250 0.6250 (   171 PWs)   bands (ev):

     9.0690   9.3406  10.7056  11.6360  12.5385  15.5051  24.4100  24.9785

     occupation numbers 
     1.0000   1.0000   1.0000   1.0000   1.0039   0.0000   0.0000   0.0000

          k =-0.1250 0.7500-0.2500 (   163 PWs)   bands (ev):

     9.0013   9.3619  10.5230  11.9297  12.7630  18.5186  20.6199  24.0203

     occupation numbers 
     1.0000   1.0000   1.0000   1.0000   1.0566   0.0000   0.0000   0.0000

          k = 0.6250-0.6250 0.3750 (   165 PWs)   bands (ev):

     9.6010   9.6010   9.7975  11.9042  11.9042  16.1846  24.4536  24.4536

     occupation numbers 
     1.0000   1.0000   1.0000   1.0000   1.0000   0.0000   0.0000   0.0000

          k = 0.5000-0.5000 0.3750 (   162 PWs)   bands (ev):

     9.4978   9.5695  10.2196  11.9373  11.9446  19.0186  20.7628  23.9000

     occupation numbers 
     1.0000   1.0000   1.0000   1.0000   1.0000   0.0000   0.0000   0.0000

          k = 0.0000 0.0000 0.6250 (   168 PWs)   bands (ev):

     8.8627   9.2876  11.5053  11.5053  12.1710  14.8695  27.0259  27.0259

     occupation numbers 
     1.0000   1.0000   1.0000   1.0000   1.0000   0.0000   0.0000   0.0000

          k = 0.0000-0.1250 0.7500 (   168 PWs)   bands (ev):

     8.7406   8.8665  11.6354  11.9037  12.8403  17.9880  22.6726  25.2481

     occupation numbers 
     1.0000   1.0000   1.0000   1.0000   0.8022   0.0000   0.0000   0.0000

          k =-0.1250 0.8750-0.1250 (   167 PWs)   bands (ev):

     8.6043   8.6043  11.7380  12.6936  12.6936  21.3690  21.3690  22.4308

     occupation numbers 
     1.0000   1.0000   1.0000   1.0744   1.0744   0.0000   0.0000   0.0000

          k = 0.0000 0.0000 0.8750 (   172 PWs)   bands (ev):

     8.3503   8.3542  12.6553  12.6553  12.8065  20.7689  23.2809  23.2809

     occupation numbers 
     1.0000   1.0000   1.0494   1.0494   0.9475   0.0000   0.0000   0.0000

 ------ SPIN DOWN ----------


          k = 0.0000 0.0000 0.1250 (   169 PWs)   bands (ev):

     5.1297  12.8356  12.8356  12.9434  14.6550  14.9073  35.5508  36.8154

     occupation numbers 
     1.0000   0.8248   0.8248   0.2710   0.0000   0.0000   0.0000   0.0000

          k = 0.0000-0.1250 0.2500 (   168 PWs)   bands (ev):

     6.3305  12.5183  12.7064  13.5976  14.2986  15.0129  31.7604  34.7229

     occupation numbers 
     1.0000   1.0021   1.0802   0.0000   0.0000   0.0000   0.0000   0.0000

          k = 0.0000-0.2500 0.3750 (   169 PWs)   bands (ev):

     8.2852  12.0546  12.4071  14.3562  14.6954  15.1269  26.4719  32.3725

     occupation numbers 
     1.0000   1.0000   1.0000   0.0000   0.0000   0.0000   0.0000   0.0000

          k = 0.0000-0.3750 0.5000 (   168 PWs)   bands (ev):

     9.5756  11.7436  12.9064  14.5650  15.4630  15.6037  22.2224  30.9908

     occupation numbers 
     1.0000   1.0000   0.4459   0.0000   0.0000   0.0000   0.0000   0.0000

          k =-0.1250 0.1250 0.1250 (   171 PWs)   bands (ev):

     5.7438  12.6000  12.6000  13.4732  14.7395  14.7395  34.0034  34.0034

     occupation numbers 
     1.0000   1.0185   1.0185   0.0000   0.0000   0.0000   0.0000   0.0000

          k =-0.1250-0.1250 0.3750 (   167 PWs)   bands (ev):

     7.9102  12.2942  12.4027  14.0174  14.4340  15.2328  29.2384  30.0818

     occupation numbers 
     1.0000   1.0000   1.0000   0.0000   0.0000   0.0000   0.0000   0.0000

          k =-0.1250-0.2500 0.5000 (   170 PWs)   bands (ev):

     9.6753  11.8459  12.2246  14.2634  15.1106  16.1501  24.4463  27.9540

     occupation numbers 
     1.0000   1.0000   1.0000   0.0000   0.0000   0.0000   0.0000   0.0000

          k =-0.1250 0.6250-0.3750 (   170 PWs)   bands (ev):

    10.2249  11.8508  12.2707  14.4183  15.3304  17.4795  21.4951  27.2568

     occupation numbers 
     1.0000   1.0000   1.0000   0.0000   0.0000   0.0000   0.0000   0.0000

          k =-0.2500 0.2500 0.1250 (   167 PWs)   bands (ev):

     7.4122  12.1143  12.2682  14.4994  14.5889  14.8962  29.1235  31.8438

     occupation numbers 
     1.0000   1.0000   1.0000   0.0000   0.0000   0.0000   0.0000   0.0000

          k =-0.2500 0.7500-0.3750 (   167 PWs)   bands (ev):

    10.9159  11.4475  11.9367  14.5500  15.0258  18.7111  22.6891  23.6842

     occupation numbers 
     1.0000   1.0000   1.0000   0.0000   0.0000   0.0000   0.0000   0.0000

          k =-0.3750 0.3750 0.1250 (   170 PWs)   bands (ev):

     9.2651  11.6969  12.3202  14.6800  15.0370  15.7509  24.1116  30.1537

     occupation numbers 
     1.0000   1.0000   1.0000   0.0000   0.0000   0.0000   0.0000   0.0000

          k =-0.3750 0.2500 0.2500 (   170 PWs)   bands (ev):

     9.2115  11.7109  11.8164  14.6666  15.0273  15.9334  26.7984  27.4425

     occupation numbers 
     1.0000   1.0000   1.0000   0.0000   0.0000   0.0000   0.0000   0.0000

          k = 0.5000-0.5000 0.1250 (   170 PWs)   bands (ev):

     9.8069  11.5373  13.0266  14.7503  15.0984  16.5732  21.4592  29.5143

     occupation numbers 
     1.0000   1.0000   0.0544   0.0000   0.0000   0.0000   0.0000   0.0000

          k = 0.5000-0.6250 0.2500 (   167 PWs)   bands (ev):

    10.4067  11.4786  12.0001  14.8049  15.0974  17.7902  22.5424  25.9330

     occupation numbers 
     1.0000   1.0000   1.0000   0.0000   0.0000   0.0000   0.0000   0.0000

          k = 0.3750-0.6250 0.3750 (   161 PWs)   bands (ev):

    11.0035  11.5727  11.5727  14.9815  14.9815  20.8308  20.8308  22.9501

     occupation numbers 
     1.0000   1.0000   1.0000   0.0000   0.0000   0.0000   0.0000   0.0000

          k = 0.0000 0.0000 0.3750 (   164 PWs)   bands (ev):

     7.4313  12.9236  12.9236  13.3555  13.6241  15.3124  31.8382  33.0198

     occupation numbers 
     1.0000   0.3597   0.3597   0.0000   0.0000   0.0000   0.0000   0.0000

          k = 0.0000-0.1250 0.5000 (   169 PWs)   bands (ev):

     9.1571  12.2096  12.7573  13.6076  14.5665  15.6914  27.2715  30.5046

     occupation numbers 
     1.0000   1.0000   1.0642   0.0000   0.0000   0.0000   0.0000   0.0000

          k = 0.0000-0.2500 0.6250 (   171 PWs)   bands (ev):

    10.3176  11.7718  12.5304  13.9444  15.5130  17.1610  22.5830  28.8584

     occupation numbers 
     1.0000   1.0000   1.0031   0.0000   0.0000   0.0000   0.0000   0.0000

          k =-0.1250-0.1250 0.6250 (   171 PWs)   bands (ev):

    10.4241  11.4980  12.8216  13.9951  15.0703  17.1782  25.2998  25.6490

     occupation numbers 
     1.0000   1.0000   0.8881   0.0000   0.0000   0.0000   0.0000   0.0000

          k =-0.1250 0.7500-0.2500 (   163 PWs)   bands (ev):

    10.9163  11.2667  12.5544  14.3526  15.3042  19.6287  21.7362  24.7329

     occupation numbers 
     1.0000   1.0000   1.0061   0.0000   0.0000   0.0000   0.0000   0.0000

          k = 0.6250-0.6250 0.3750 (   165 PWs)   bands (ev):

    10.7574  11.3996  11.3996  15.0269  15.0269  17.8710  25.2151  25.2151

     occupation numbers 
     1.0000   1.0000   1.0000   0.0000   0.0000   0.0000   0.0000   0.0000

          k = 0.5000-0.5000 0.3750 (   162 PWs)   bands (ev):

    11.0712  11.3110  11.6747  15.0594  15.1311  20.1392  21.8546  24.6655

     occupation numbers 
     1.0000   1.0000   1.0000   0.0000   0.0000   0.0000   0.0000   0.0000

          k = 0.0000 0.0000 0.6250 (   168 PWs)   bands (ev):

    10.1542  11.5895  13.7060  13.7060  14.6237  16.6315  27.5895  27.5895

     occupation numbers 
     1.0000   1.0000   0.0000   0.0000   0.0000   0.0000   0.0000   0.0000

          k = 0.0000-0.1250 0.7500 (   168 PWs)   bands (ev):

    10.6223  10.9328  13.8843  14.1773  15.3886  19.0339  23.4305  25.7044

     occupation numbers 
     1.0000   1.0000   0.0000   0.0000   0.0000   0.0000   0.0000   0.0000

          k =-0.1250 0.8750-0.1250 (   167 PWs)   bands (ev):

    10.6283  10.6283  13.9589  15.1822  15.1822  22.0777  22.0777  22.9968

     occupation numbers 
     1.0000   1.0000   0.0000   0.0000   0.0000   0.0000   0.0000   0.0000

          k = 0.0000 0.0000 0.8750 (   172 PWs)   bands (ev):

    10.3520  10.4168  15.1247  15.1247  15.3568  21.2875  23.5545  23.5546

     occupation numbers 
     1.0000   1.0000   0.0000   0.0000   0.0000   0.0000   0.0000   0.0000

     the Fermi energy is    12.9153 ev

!    total energy              =     -55.80194592 Ry
     estimated scf accuracy    <       0.00000082 Ry
     smearing contrib. (-TS)   =       0.00010174 Ry
     internal energy E=F+TS    =     -55.80204767 Ry

     The total energy is F=E-TS. E is the sum of the following terms:
     one-electron contribution =       6.88775608 Ry
     hartree contribution      =       6.72197928 Ry
     xc contribution           =     -26.43928467 Ry
     ewald contribution        =     -42.97249836 Ry

     total magnetization       =     2.29 Bohr mag/cell
     absolute magnetization    =     2.45 Bohr mag/cell

     convergence has been achieved in   8 iterations

     Writing all to output data dir ./output/fe.save/ :
     XML data file, charge density, pseudopotentials, collected wavefunctions

     init_run     :      0.22s CPU      0.26s WALL (       1 calls)
     electrons    :      0.91s CPU      1.07s WALL (       1 calls)

     Called by init_run:
     wfcinit      :      0.03s CPU      0.04s WALL (       1 calls)
     wfcinit:atom :      0.00s CPU      0.00s WALL (      52 calls)
     wfcinit:wfcr :      0.02s CPU      0.03s WALL (      52 calls)
     potinit      :      0.02s CPU      0.02s WALL (       1 calls)
     hinit0       :      0.16s CPU      0.18s WALL (       1 calls)

     Called by electrons:
     c_bands      :      0.69s CPU      0.81s WALL (       8 calls)
     sum_band     :      0.13s CPU      0.17s WALL (       8 calls)
     v_of_rho     :      0.04s CPU      0.04s WALL (       9 calls)
     v_h          :      0.00s CPU      0.00s WALL (       9 calls)
     v_xc         :      0.04s CPU      0.04s WALL (       9 calls)
     newd         :      0.05s CPU      0.05s WALL (       9 calls)
     mix_rho      :      0.00s CPU      0.00s WALL (       8 calls)

     Called by c_bands:
     init_us_2    :      0.01s CPU      0.02s WALL (     884 calls)
     cegterg      :      0.65s CPU      0.77s WALL (     416 calls)

     Called by sum_band:
     sum_band:wei :      0.00s CPU      0.00s WALL (       8 calls)
     sum_band:loo :      0.07s CPU      0.09s WALL (       8 calls)
     sum_band:buf :      0.00s CPU      0.00s WALL (     416 calls)
     sum_band:ini :      0.01s CPU      0.01s WALL (     416 calls)
     sum_band:cal :      0.01s CPU      0.01s WALL (     416 calls)
     sum_band:bec :      0.00s CPU      0.00s WALL (     416 calls)
     addusdens    :      0.06s CPU      0.07s WALL (       8 calls)
                                        0.00s GPU  (       8 calls)
     addusd:skk   :      0.00s CPU      0.00s WALL (       8 calls)
                                        0.00s GPU  (       8 calls)

     Called by *egterg:
     cdiaghg      :      0.15s CPU      0.18s WALL (    1752 calls)
     cegterg:over :      0.04s CPU      0.04s WALL (    1336 calls)
     cegterg:upda :      0.01s CPU      0.02s WALL (    1336 calls)
     cegterg:last :      0.03s CPU      0.03s WALL (     919 calls)
     h_psi        :      0.37s CPU      0.44s WALL (    1804 calls)
     s_psi        :      0.03s CPU      0.03s WALL (    1804 calls)
     g_psi        :      0.00s CPU      0.00s WALL (    1336 calls)

     Called by h_psi:
     h_psi:calbec :      0.04s CPU      0.04s WALL (    1804 calls)
     vloc_psi     :      0.30s CPU      0.35s WALL (    1804 calls)
     add_vuspsi   :      0.03s CPU      0.03s WALL (    1804 calls)

     General routines
     calbec       :      0.04s CPU      0.05s WALL (    2220 calls)
     fft          :      0.11s CPU      0.12s WALL (     219 calls)
     ffts         :      0.01s CPU      0.01s WALL (      34 calls)
     fftw         :      0.27s CPU      0.32s WALL (   22490 calls)
     interpolate  :      0.01s CPU      0.01s WALL (      18 calls)

     Parallel routines

     PWSCF        :      1.26s CPU      1.51s WALL


   This run was terminated on:  10: 9:45  17Apr2025            

=------------------------------------------------------------------------------=
   JOB DONE.
=------------------------------------------------------------------------------=
