
     Program PWSCF v.7.4 starts on 17Apr2025 at 10:20:10 

     This program is part of the open-source Quantum ESPRESSO suite
     for quantum simulation of materials; please cite
         "P. Giannozzi et al., J. Phys.:Condens. Matter 21 395502 (2009);
         "P. Giannozzi et al., J. Phys.:Condens. Matter 29 465901 (2017);
         "P. Giannozzi et al., J. Chem. Phys. 152 154105 (2020);
          URL http://www.quantum-espresso.org", 
     in publications or presentations arising from this work. More details at
     http://www.quantum-espresso.org/quote

     Parallel version (MPI), running on     4 processors

     MPI processes distributed on     1 nodes
     3017 MiB available memory on the printing compute node when the environment starts

     Reading input from pw.scf.fe_afm.in

     Current dimensions of program PWSCF are:
     Max number of different atomic species (ntypx) = 10
     Max number of k-points (npk) =  40000
     Max angular momentum in pseudopotentials (lmaxx) =  4
     file Fe.pbe-nd-rrkjus.UPF: wavefunction(s)  4S renormalized
     file Fe.pbe-nd-rrkjus.UPF: wavefunction(s)  4S renormalized

     R & G space division:  proc/nbgrp/npool/nimage =       4
     Subspace diagonalization in iterative solution of the eigenvalue problem:
     a serial algorithm will be used


     Parallelization info
     --------------------
     sticks:   dense  smooth     PW     G-vecs:    dense   smooth      PW
     Min         293     165     48                 7522     3139     524
     Max         295     167     49                 7525     3140     527
     Sum        1177     665    193                30095    12557    2103

     Using Slab Decomposition



     bravais-lattice index     =            1
     lattice parameter (alat)  =       5.4200  a.u.
     unit-cell volume          =     159.2201 (a.u.)^3
     number of atoms/cell      =            2
     number of atomic types    =            2
     number of electrons       =        16.00
     number of Kohn-Sham states=           12
     kinetic-energy cutoff     =      70.0000  Ry
     charge density cutoff     =     500.0000  Ry
     scf convergence threshold =      1.0E-06
     mixing beta               =       0.7000
     number of iterations used =            8  plain     mixing
     Exchange-correlation=  SLA  PW   PBE  PBE
                           (   1   4   3   4   0   0   0)

     celldm(1)=   5.420000  celldm(2)=   0.000000  celldm(3)=   0.000000
     celldm(4)=   0.000000  celldm(5)=   0.000000  celldm(6)=   0.000000

     crystal axes: (cart. coord. in units of alat)
               a(1) = (   1.000000   0.000000   0.000000 )  
               a(2) = (   0.000000   1.000000   0.000000 )  
               a(3) = (   0.000000   0.000000   1.000000 )  

     reciprocal axes: (cart. coord. in units 2 pi/alat)
               b(1) = (  1.000000  0.000000  0.000000 )  
               b(2) = (  0.000000  1.000000  0.000000 )  
               b(3) = (  0.000000  0.000000  1.000000 )  


     PseudoPot. # 1 for Fe read from file:
     ../../SOURCE/q-e-qe-7.4/pseudo/Fe.pbe-nd-rrkjus.UPF
     MD5 check sum: 398036227a04b607635f6f5e8dfd8242
     Pseudo is Ultrasoft + core correction, Zval =  8.0
     Generated by new atomic code, or converted to UPF format
     Using radial grid of  957 points,  6 beta functions with: 
                l(1) =   0
                l(2) =   0
                l(3) =   1
                l(4) =   1
                l(5) =   2
                l(6) =   2
     Q(r) pseudized with 0 coefficients 


     PseudoPot. # 2 for Fe read from file:
     ../../SOURCE/q-e-qe-7.4/pseudo/Fe.pbe-nd-rrkjus.UPF
     MD5 check sum: 398036227a04b607635f6f5e8dfd8242
     Pseudo is Ultrasoft + core correction, Zval =  8.0
     Generated by new atomic code, or converted to UPF format
     Using radial grid of  957 points,  6 beta functions with: 
                l(1) =   0
                l(2) =   0
                l(3) =   1
                l(4) =   1
                l(5) =   2
                l(6) =   2
     Q(r) pseudized with 0 coefficients 


     atomic species   valence    mass     pseudopotential
     Fe1               8.00     1.00000     Fe( 1.00)
     Fe2               8.00     1.00000     Fe( 1.00)

     Starting magnetic structure 
     atomic species   magnetization
     Fe1             0.600
     Fe2            -0.600

     48 Sym. Ops., with inversion, found


                                    s                        frac. trans.

      isym =  1     identity                                     

 cryst.   s( 1) = (     1          0          0      )
                  (     0          1          0      )
                  (     0          0          1      )

 cart.    s( 1) = (  1.0000000  0.0000000  0.0000000 )
                  (  0.0000000  1.0000000  0.0000000 )
                  (  0.0000000  0.0000000  1.0000000 )


      isym =  2     180 deg rotation - cart. axis [0,0,1]        

 cryst.   s( 2) = (    -1          0          0      )
                  (     0         -1          0      )
                  (     0          0          1      )

 cart.    s( 2) = ( -1.0000000  0.0000000  0.0000000 )
                  (  0.0000000 -1.0000000  0.0000000 )
                  (  0.0000000  0.0000000  1.0000000 )


      isym =  3     180 deg rotation - cart. axis [0,1,0]        

 cryst.   s( 3) = (    -1          0          0      )
                  (     0          1          0      )
                  (     0          0         -1      )

 cart.    s( 3) = ( -1.0000000  0.0000000  0.0000000 )
                  (  0.0000000  1.0000000  0.0000000 )
                  (  0.0000000  0.0000000 -1.0000000 )


      isym =  4     180 deg rotation - cart. axis [1,0,0]        

 cryst.   s( 4) = (     1          0          0      )
                  (     0         -1          0      )
                  (     0          0         -1      )

 cart.    s( 4) = (  1.0000000  0.0000000  0.0000000 )
                  (  0.0000000 -1.0000000  0.0000000 )
                  (  0.0000000  0.0000000 -1.0000000 )


      isym =  5     180 deg rotation - cart. axis [1,1,0]        

 cryst.   s( 5) = (     0          1          0      )
                  (     1          0          0      )
                  (     0          0         -1      )

 cart.    s( 5) = (  0.0000000  1.0000000  0.0000000 )
                  (  1.0000000  0.0000000  0.0000000 )
                  (  0.0000000  0.0000000 -1.0000000 )


      isym =  6     180 deg rotation - cart. axis [1,-1,0]       

 cryst.   s( 6) = (     0         -1          0      )
                  (    -1          0          0      )
                  (     0          0         -1      )

 cart.    s( 6) = (  0.0000000 -1.0000000  0.0000000 )
                  ( -1.0000000  0.0000000  0.0000000 )
                  (  0.0000000  0.0000000 -1.0000000 )


      isym =  7      90 deg rotation - cart. axis [0,0,-1]       

 cryst.   s( 7) = (     0         -1          0      )
                  (     1          0          0      )
                  (     0          0          1      )

 cart.    s( 7) = (  0.0000000  1.0000000  0.0000000 )
                  ( -1.0000000  0.0000000  0.0000000 )
                  (  0.0000000  0.0000000  1.0000000 )


      isym =  8      90 deg rotation - cart. axis [0,0,1]        

 cryst.   s( 8) = (     0          1          0      )
                  (    -1          0          0      )
                  (     0          0          1      )

 cart.    s( 8) = (  0.0000000 -1.0000000  0.0000000 )
                  (  1.0000000  0.0000000  0.0000000 )
                  (  0.0000000  0.0000000  1.0000000 )


      isym =  9     180 deg rotation - cart. axis [1,0,1]        

 cryst.   s( 9) = (     0          0          1      )
                  (     0         -1          0      )
                  (     1          0          0      )

 cart.    s( 9) = (  0.0000000  0.0000000  1.0000000 )
                  (  0.0000000 -1.0000000  0.0000000 )
                  (  1.0000000  0.0000000  0.0000000 )


      isym = 10     180 deg rotation - cart. axis [-1,0,1]       

 cryst.   s(10) = (     0          0         -1      )
                  (     0         -1          0      )
                  (    -1          0          0      )

 cart.    s(10) = (  0.0000000  0.0000000 -1.0000000 )
                  (  0.0000000 -1.0000000  0.0000000 )
                  ( -1.0000000  0.0000000  0.0000000 )


      isym = 11      90 deg rotation - cart. axis [0,1,0]        

 cryst.   s(11) = (     0          0         -1      )
                  (     0          1          0      )
                  (     1          0          0      )

 cart.    s(11) = (  0.0000000  0.0000000  1.0000000 )
                  (  0.0000000  1.0000000  0.0000000 )
                  ( -1.0000000  0.0000000  0.0000000 )


      isym = 12      90 deg rotation - cart. axis [0,-1,0]       

 cryst.   s(12) = (     0          0          1      )
                  (     0          1          0      )
                  (    -1          0          0      )

 cart.    s(12) = (  0.0000000  0.0000000 -1.0000000 )
                  (  0.0000000  1.0000000  0.0000000 )
                  (  1.0000000  0.0000000  0.0000000 )


      isym = 13     180 deg rotation - cart. axis [0,1,1]        

 cryst.   s(13) = (    -1          0          0      )
                  (     0          0          1      )
                  (     0          1          0      )

 cart.    s(13) = ( -1.0000000  0.0000000  0.0000000 )
                  (  0.0000000  0.0000000  1.0000000 )
                  (  0.0000000  1.0000000  0.0000000 )


      isym = 14     180 deg rotation - cart. axis [0,1,-1]       

 cryst.   s(14) = (    -1          0          0      )
                  (     0          0         -1      )
                  (     0         -1          0      )

 cart.    s(14) = ( -1.0000000  0.0000000  0.0000000 )
                  (  0.0000000  0.0000000 -1.0000000 )
                  (  0.0000000 -1.0000000  0.0000000 )


      isym = 15      90 deg rotation - cart. axis [-1,0,0]       

 cryst.   s(15) = (     1          0          0      )
                  (     0          0         -1      )
                  (     0          1          0      )

 cart.    s(15) = (  1.0000000  0.0000000  0.0000000 )
                  (  0.0000000  0.0000000  1.0000000 )
                  (  0.0000000 -1.0000000  0.0000000 )


      isym = 16      90 deg rotation - cart. axis [1,0,0]        

 cryst.   s(16) = (     1          0          0      )
                  (     0          0          1      )
                  (     0         -1          0      )

 cart.    s(16) = (  1.0000000  0.0000000  0.0000000 )
                  (  0.0000000  0.0000000 -1.0000000 )
                  (  0.0000000  1.0000000  0.0000000 )


      isym = 17     120 deg rotation - cart. axis [-1,-1,-1]     

 cryst.   s(17) = (     0          0          1      )
                  (     1          0          0      )
                  (     0          1          0      )

 cart.    s(17) = (  0.0000000  1.0000000  0.0000000 )
                  (  0.0000000  0.0000000  1.0000000 )
                  (  1.0000000  0.0000000  0.0000000 )


      isym = 18     120 deg rotation - cart. axis [-1,1,1]       

 cryst.   s(18) = (     0          0         -1      )
                  (    -1          0          0      )
                  (     0          1          0      )

 cart.    s(18) = (  0.0000000 -1.0000000  0.0000000 )
                  (  0.0000000  0.0000000  1.0000000 )
                  ( -1.0000000  0.0000000  0.0000000 )


      isym = 19     120 deg rotation - cart. axis [1,1,-1]       

 cryst.   s(19) = (     0          0         -1      )
                  (     1          0          0      )
                  (     0         -1          0      )

 cart.    s(19) = (  0.0000000  1.0000000  0.0000000 )
                  (  0.0000000  0.0000000 -1.0000000 )
                  ( -1.0000000  0.0000000  0.0000000 )


      isym = 20     120 deg rotation - cart. axis [1,-1,1]       

 cryst.   s(20) = (     0          0          1      )
                  (    -1          0          0      )
                  (     0         -1          0      )

 cart.    s(20) = (  0.0000000 -1.0000000  0.0000000 )
                  (  0.0000000  0.0000000 -1.0000000 )
                  (  1.0000000  0.0000000  0.0000000 )


      isym = 21     120 deg rotation - cart. axis [1,1,1]        

 cryst.   s(21) = (     0          1          0      )
                  (     0          0          1      )
                  (     1          0          0      )

 cart.    s(21) = (  0.0000000  0.0000000  1.0000000 )
                  (  1.0000000  0.0000000  0.0000000 )
                  (  0.0000000  1.0000000  0.0000000 )


      isym = 22     120 deg rotation - cart. axis [-1,1,-1]      

 cryst.   s(22) = (     0         -1          0      )
                  (     0          0         -1      )
                  (     1          0          0      )

 cart.    s(22) = (  0.0000000  0.0000000  1.0000000 )
                  ( -1.0000000  0.0000000  0.0000000 )
                  (  0.0000000 -1.0000000  0.0000000 )


      isym = 23     120 deg rotation - cart. axis [1,-1,-1]      

 cryst.   s(23) = (     0         -1          0      )
                  (     0          0          1      )
                  (    -1          0          0      )

 cart.    s(23) = (  0.0000000  0.0000000 -1.0000000 )
                  ( -1.0000000  0.0000000  0.0000000 )
                  (  0.0000000  1.0000000  0.0000000 )


      isym = 24     120 deg rotation - cart. axis [-1,-1,1]      

 cryst.   s(24) = (     0          1          0      )
                  (     0          0         -1      )
                  (    -1          0          0      )

 cart.    s(24) = (  0.0000000  0.0000000 -1.0000000 )
                  (  1.0000000  0.0000000  0.0000000 )
                  (  0.0000000 -1.0000000  0.0000000 )


      isym = 25     inversion                                    

 cryst.   s(25) = (    -1          0          0      )
                  (     0         -1          0      )
                  (     0          0         -1      )

 cart.    s(25) = ( -1.0000000  0.0000000  0.0000000 )
                  (  0.0000000 -1.0000000  0.0000000 )
                  (  0.0000000  0.0000000 -1.0000000 )


      isym = 26     inv. 180 deg rotation - cart. axis [0,0,1]   

 cryst.   s(26) = (     1          0          0      )
                  (     0          1          0      )
                  (     0          0         -1      )

 cart.    s(26) = (  1.0000000  0.0000000  0.0000000 )
                  (  0.0000000  1.0000000  0.0000000 )
                  (  0.0000000  0.0000000 -1.0000000 )


      isym = 27     inv. 180 deg rotation - cart. axis [0,1,0]   

 cryst.   s(27) = (     1          0          0      )
                  (     0         -1          0      )
                  (     0          0          1      )

 cart.    s(27) = (  1.0000000  0.0000000  0.0000000 )
                  (  0.0000000 -1.0000000  0.0000000 )
                  (  0.0000000  0.0000000  1.0000000 )


      isym = 28     inv. 180 deg rotation - cart. axis [1,0,0]   

 cryst.   s(28) = (    -1          0          0      )
                  (     0          1          0      )
                  (     0          0          1      )

 cart.    s(28) = ( -1.0000000  0.0000000  0.0000000 )
                  (  0.0000000  1.0000000  0.0000000 )
                  (  0.0000000  0.0000000  1.0000000 )


      isym = 29     inv. 180 deg rotation - cart. axis [1,1,0]   

 cryst.   s(29) = (     0         -1          0      )
                  (    -1          0          0      )
                  (     0          0          1      )

 cart.    s(29) = (  0.0000000 -1.0000000  0.0000000 )
                  ( -1.0000000  0.0000000  0.0000000 )
                  (  0.0000000  0.0000000  1.0000000 )


      isym = 30     inv. 180 deg rotation - cart. axis [1,-1,0]  

 cryst.   s(30) = (     0          1          0      )
                  (     1          0          0      )
                  (     0          0          1      )

 cart.    s(30) = (  0.0000000  1.0000000  0.0000000 )
                  (  1.0000000  0.0000000  0.0000000 )
                  (  0.0000000  0.0000000  1.0000000 )


      isym = 31     inv.  90 deg rotation - cart. axis [0,0,-1]  

 cryst.   s(31) = (     0          1          0      )
                  (    -1          0          0      )
                  (     0          0         -1      )

 cart.    s(31) = (  0.0000000 -1.0000000  0.0000000 )
                  (  1.0000000  0.0000000  0.0000000 )
                  (  0.0000000  0.0000000 -1.0000000 )


      isym = 32     inv.  90 deg rotation - cart. axis [0,0,1]   

 cryst.   s(32) = (     0         -1          0      )
                  (     1          0          0      )
                  (     0          0         -1      )

 cart.    s(32) = (  0.0000000  1.0000000  0.0000000 )
                  ( -1.0000000  0.0000000  0.0000000 )
                  (  0.0000000  0.0000000 -1.0000000 )


      isym = 33     inv. 180 deg rotation - cart. axis [1,0,1]   

 cryst.   s(33) = (     0          0         -1      )
                  (     0          1          0      )
                  (    -1          0          0      )

 cart.    s(33) = (  0.0000000  0.0000000 -1.0000000 )
                  (  0.0000000  1.0000000  0.0000000 )
                  ( -1.0000000  0.0000000  0.0000000 )


      isym = 34     inv. 180 deg rotation - cart. axis [-1,0,1]  

 cryst.   s(34) = (     0          0          1      )
                  (     0          1          0      )
                  (     1          0          0      )

 cart.    s(34) = (  0.0000000  0.0000000  1.0000000 )
                  (  0.0000000  1.0000000  0.0000000 )
                  (  1.0000000  0.0000000  0.0000000 )


      isym = 35     inv.  90 deg rotation - cart. axis [0,1,0]   

 cryst.   s(35) = (     0          0          1      )
                  (     0         -1          0      )
                  (    -1          0          0      )

 cart.    s(35) = (  0.0000000  0.0000000 -1.0000000 )
                  (  0.0000000 -1.0000000  0.0000000 )
                  (  1.0000000  0.0000000  0.0000000 )


      isym = 36     inv.  90 deg rotation - cart. axis [0,-1,0]  

 cryst.   s(36) = (     0          0         -1      )
                  (     0         -1          0      )
                  (     1          0          0      )

 cart.    s(36) = (  0.0000000  0.0000000  1.0000000 )
                  (  0.0000000 -1.0000000  0.0000000 )
                  ( -1.0000000  0.0000000  0.0000000 )


      isym = 37     inv. 180 deg rotation - cart. axis [0,1,1]   

 cryst.   s(37) = (     1          0          0      )
                  (     0          0         -1      )
                  (     0         -1          0      )

 cart.    s(37) = (  1.0000000  0.0000000  0.0000000 )
                  (  0.0000000  0.0000000 -1.0000000 )
                  (  0.0000000 -1.0000000  0.0000000 )


      isym = 38     inv. 180 deg rotation - cart. axis [0,1,-1]  

 cryst.   s(38) = (     1          0          0      )
                  (     0          0          1      )
                  (     0          1          0      )

 cart.    s(38) = (  1.0000000  0.0000000  0.0000000 )
                  (  0.0000000  0.0000000  1.0000000 )
                  (  0.0000000  1.0000000  0.0000000 )


      isym = 39     inv.  90 deg rotation - cart. axis [-1,0,0]  

 cryst.   s(39) = (    -1          0          0      )
                  (     0          0          1      )
                  (     0         -1          0      )

 cart.    s(39) = ( -1.0000000  0.0000000  0.0000000 )
                  (  0.0000000  0.0000000 -1.0000000 )
                  (  0.0000000  1.0000000  0.0000000 )


      isym = 40     inv.  90 deg rotation - cart. axis [1,0,0]   

 cryst.   s(40) = (    -1          0          0      )
                  (     0          0         -1      )
                  (     0          1          0      )

 cart.    s(40) = ( -1.0000000  0.0000000  0.0000000 )
                  (  0.0000000  0.0000000  1.0000000 )
                  (  0.0000000 -1.0000000  0.0000000 )


      isym = 41     inv. 120 deg rotation - cart. axis [-1,-1,-1]

 cryst.   s(41) = (     0          0         -1      )
                  (    -1          0          0      )
                  (     0         -1          0      )

 cart.    s(41) = (  0.0000000 -1.0000000  0.0000000 )
                  (  0.0000000  0.0000000 -1.0000000 )
                  ( -1.0000000  0.0000000  0.0000000 )


      isym = 42     inv. 120 deg rotation - cart. axis [-1,1,1]  

 cryst.   s(42) = (     0          0          1      )
                  (     1          0          0      )
                  (     0         -1          0      )

 cart.    s(42) = (  0.0000000  1.0000000  0.0000000 )
                  (  0.0000000  0.0000000 -1.0000000 )
                  (  1.0000000  0.0000000  0.0000000 )


      isym = 43     inv. 120 deg rotation - cart. axis [1,1,-1]  

 cryst.   s(43) = (     0          0          1      )
                  (    -1          0          0      )
                  (     0          1          0      )

 cart.    s(43) = (  0.0000000 -1.0000000  0.0000000 )
                  (  0.0000000  0.0000000  1.0000000 )
                  (  1.0000000  0.0000000  0.0000000 )


      isym = 44     inv. 120 deg rotation - cart. axis [1,-1,1]  

 cryst.   s(44) = (     0          0         -1      )
                  (     1          0          0      )
                  (     0          1          0      )

 cart.    s(44) = (  0.0000000  1.0000000  0.0000000 )
                  (  0.0000000  0.0000000  1.0000000 )
                  ( -1.0000000  0.0000000  0.0000000 )


      isym = 45     inv. 120 deg rotation - cart. axis [1,1,1]   

 cryst.   s(45) = (     0         -1          0      )
                  (     0          0         -1      )
                  (    -1          0          0      )

 cart.    s(45) = (  0.0000000  0.0000000 -1.0000000 )
                  ( -1.0000000  0.0000000  0.0000000 )
                  (  0.0000000 -1.0000000  0.0000000 )


      isym = 46     inv. 120 deg rotation - cart. axis [-1,1,-1] 

 cryst.   s(46) = (     0          1          0      )
                  (     0          0          1      )
                  (    -1          0          0      )

 cart.    s(46) = (  0.0000000  0.0000000 -1.0000000 )
                  (  1.0000000  0.0000000  0.0000000 )
                  (  0.0000000  1.0000000  0.0000000 )


      isym = 47     inv. 120 deg rotation - cart. axis [1,-1,-1] 

 cryst.   s(47) = (     0          1          0      )
                  (     0          0         -1      )
                  (     1          0          0      )

 cart.    s(47) = (  0.0000000  0.0000000  1.0000000 )
                  (  1.0000000  0.0000000  0.0000000 )
                  (  0.0000000 -1.0000000  0.0000000 )


      isym = 48     inv. 120 deg rotation - cart. axis [-1,-1,1] 

 cryst.   s(48) = (     0         -1          0      )
                  (     0          0          1      )
                  (     1          0          0      )

 cart.    s(48) = (  0.0000000  0.0000000  1.0000000 )
                  ( -1.0000000  0.0000000  0.0000000 )
                  (  0.0000000  1.0000000  0.0000000 )


     point group O_h (m-3m) 
     there are 10 classes
     the character table:

       E     8C3   3C2   6C4   6C2'  i     8S6   3s_h  6S4   6s_d 
A_1g   1.00  1.00  1.00  1.00  1.00  1.00  1.00  1.00  1.00  1.00
A_2g   1.00  1.00  1.00 -1.00 -1.00  1.00  1.00  1.00 -1.00 -1.00
E_g    2.00 -1.00  2.00  0.00  0.00  2.00 -1.00  2.00  0.00  0.00
T_1g   3.00  0.00 -1.00  1.00 -1.00  3.00  0.00 -1.00  1.00 -1.00
T_2g   3.00  0.00 -1.00 -1.00  1.00  3.00  0.00 -1.00 -1.00  1.00
A_1u   1.00  1.00  1.00  1.00  1.00 -1.00 -1.00 -1.00 -1.00 -1.00
A_2u   1.00  1.00  1.00 -1.00 -1.00 -1.00 -1.00 -1.00  1.00  1.00
E_u    2.00 -1.00  2.00  0.00  0.00 -2.00  1.00 -2.00  0.00  0.00
T_1u   3.00  0.00 -1.00  1.00 -1.00 -3.00  0.00  1.00 -1.00  1.00
T_2u   3.00  0.00 -1.00 -1.00  1.00 -3.00  0.00  1.00  1.00 -1.00

     the symmetry operations in each class and the name of the first element:

     E        1
          identity                                               
     8C3     17   19   20   18   24   21   22   23
          120 deg rotation - cart. axis [-1,-1,-1]               
     3C2      2    4    3
          180 deg rotation - cart. axis [0,0,1]                  
     6C4      7    8   15   16   12   11
           90 deg rotation - cart. axis [0,0,-1]                 
     6C2'     5    6   14   13   10    9
          180 deg rotation - cart. axis [1,1,0]                  
     i       25
          inversion                                              
     8S6     41   43   44   42   48   45   46   47
          inv. 120 deg rotation - cart. axis [-1,-1,-1]          
     3s_h    26   28   27
          inv. 180 deg rotation - cart. axis [0,0,1]             
     6S4     31   32   39   40   36   35
          inv.  90 deg rotation - cart. axis [0,0,-1]            
     6s_d    29   30   38   37   34   33
          inv. 180 deg rotation - cart. axis [1,1,0]             

   Cartesian axes

     site n.     atom                  positions (alat units)
         1        Fe1    tau(   1) = (   0.0000000   0.0000000   0.0000000  )
         2        Fe2    tau(   2) = (   0.5000000   0.5000000   0.5000000  )

   Crystallographic axes

     site n.     atom                  positions (cryst. coord.)
         1        Fe1    tau(   1) = (  0.0000000  0.0000000  0.0000000  )
         2        Fe2    tau(   2) = (  0.5000000  0.5000000  0.5000000  )

     number of k points=    20  Marzari-Vanderbilt smearing, width (Ry)=  0.0100
                       cart. coord. in units 2pi/alat
        k(    1) = (   0.0625000   0.0625000   0.0625000), wk =   0.0156250
        k(    2) = (   0.0625000   0.0625000   0.1875000), wk =   0.0468750
        k(    3) = (   0.0625000   0.0625000   0.3125000), wk =   0.0468750
        k(    4) = (   0.0625000   0.0625000   0.4375000), wk =   0.0468750
        k(    5) = (   0.0625000   0.1875000   0.1875000), wk =   0.0468750
        k(    6) = (   0.0625000   0.1875000   0.3125000), wk =   0.0937500
        k(    7) = (   0.0625000   0.1875000   0.4375000), wk =   0.0937500
        k(    8) = (   0.0625000   0.3125000   0.3125000), wk =   0.0468750
        k(    9) = (   0.0625000   0.3125000   0.4375000), wk =   0.0937500
        k(   10) = (   0.0625000   0.4375000   0.4375000), wk =   0.0468750
        k(   11) = (   0.1875000   0.1875000   0.1875000), wk =   0.0156250
        k(   12) = (   0.1875000   0.1875000   0.3125000), wk =   0.0468750
        k(   13) = (   0.1875000   0.1875000   0.4375000), wk =   0.0468750
        k(   14) = (   0.1875000   0.3125000   0.3125000), wk =   0.0468750
        k(   15) = (   0.1875000   0.3125000   0.4375000), wk =   0.0937500
        k(   16) = (   0.1875000   0.4375000   0.4375000), wk =   0.0468750
        k(   17) = (   0.3125000   0.3125000   0.3125000), wk =   0.0156250
        k(   18) = (   0.3125000   0.3125000   0.4375000), wk =   0.0468750
        k(   19) = (   0.3125000   0.4375000   0.4375000), wk =   0.0468750
        k(   20) = (   0.4375000   0.4375000   0.4375000), wk =   0.0156250

                       cryst. coord.
        k(    1) = (   0.0625000   0.0625000   0.0625000), wk =   0.0156250
        k(    2) = (   0.0625000   0.0625000   0.1875000), wk =   0.0468750
        k(    3) = (   0.0625000   0.0625000   0.3125000), wk =   0.0468750
        k(    4) = (   0.0625000   0.0625000   0.4375000), wk =   0.0468750
        k(    5) = (   0.0625000   0.1875000   0.1875000), wk =   0.0468750
        k(    6) = (   0.0625000   0.1875000   0.3125000), wk =   0.0937500
        k(    7) = (   0.0625000   0.1875000   0.4375000), wk =   0.0937500
        k(    8) = (   0.0625000   0.3125000   0.3125000), wk =   0.0468750
        k(    9) = (   0.0625000   0.3125000   0.4375000), wk =   0.0937500
        k(   10) = (   0.0625000   0.4375000   0.4375000), wk =   0.0468750
        k(   11) = (   0.1875000   0.1875000   0.1875000), wk =   0.0156250
        k(   12) = (   0.1875000   0.1875000   0.3125000), wk =   0.0468750
        k(   13) = (   0.1875000   0.1875000   0.4375000), wk =   0.0468750
        k(   14) = (   0.1875000   0.3125000   0.3125000), wk =   0.0468750
        k(   15) = (   0.1875000   0.3125000   0.4375000), wk =   0.0937500
        k(   16) = (   0.1875000   0.4375000   0.4375000), wk =   0.0468750
        k(   17) = (   0.3125000   0.3125000   0.3125000), wk =   0.0156250
        k(   18) = (   0.3125000   0.3125000   0.4375000), wk =   0.0468750
        k(   19) = (   0.3125000   0.4375000   0.4375000), wk =   0.0468750
        k(   20) = (   0.4375000   0.4375000   0.4375000), wk =   0.0156250

     Dense  grid:    30095 G-vectors     FFT dimensions: (  40,  40,  40)

     Smooth grid:    12557 G-vectors     FFT dimensions: (  30,  30,  30)

     Dynamical RAM for                 wfc:       0.07 MB

     Dynamical RAM for     wfc (w. buffer):       2.95 MB

     Dynamical RAM for           str. fact:       0.23 MB

     Dynamical RAM for           local pot:       0.00 MB

     Dynamical RAM for          nlocal pot:       0.22 MB

     Dynamical RAM for                qrad:       3.59 MB

     Dynamical RAM for          rho,v,vnew:       1.42 MB

     Dynamical RAM for               rhoin:       0.47 MB

     Dynamical RAM for            rho*nmix:       3.67 MB

     Dynamical RAM for           G-vectors:       0.45 MB

     Dynamical RAM for          h,s,v(r/c):       0.03 MB

     Dynamical RAM for          <psi|beta>:       0.01 MB

     Dynamical RAM for                 psi:       0.14 MB

     Dynamical RAM for                hpsi:       0.14 MB

     Dynamical RAM for                spsi:       0.14 MB

     Dynamical RAM for      wfcinit/wfcrot:       0.15 MB

     Dynamical RAM for           addusdens:      21.59 MB

     Estimated static dynamical RAM per process >      10.41 MB

     Estimated max dynamical RAM per process >      35.67 MB

     Estimated total dynamical RAM >     142.69 MB
     Generating pointlists ...
     new r_m :   0.3572 (alat units)  1.9362 (a.u.) for type    1
     new r_m :   0.3572 (alat units)  1.9362 (a.u.) for type    2

     Initial potential from superposition of free atoms

     starting charge      15.9987, renormalised to      16.0000
     Starting wfcs are   12 randomized atomic wfcs

     total cpu time spent up to now is        1.2 secs

     Self-consistent Calculation

     iteration #  1     ecut=    70.00 Ry     beta= 0.70
     Davidson diagonalization with overlap

---- Real-time Memory Report at c_bands before calling an iterative solver
            67 MiB given to the printing process from OS
             0 MiB allocation reported by mallinfo(arena+hblkhd)
          2859 MiB available memory on the node where the printing process lives
------------------
     ethr =  1.00E-02,  avg # of iterations =  3.9

     total cpu time spent up to now is        2.2 secs

     total energy              =    -111.26646987 Ry
     estimated scf accuracy    <       0.61386315 Ry

     total magnetization       =     0.00 Bohr mag/cell
     absolute magnetization    =     5.81 Bohr mag/cell

     iteration #  2     ecut=    70.00 Ry     beta= 0.70
     Davidson diagonalization with overlap

---- Real-time Memory Report at c_bands before calling an iterative solver
            72 MiB given to the printing process from OS
             0 MiB allocation reported by mallinfo(arena+hblkhd)
          2835 MiB available memory on the node where the printing process lives
------------------
     ethr =  3.84E-03,  avg # of iterations =  2.8

     total cpu time spent up to now is        3.2 secs

     total energy              =    -111.42361661 Ry
     estimated scf accuracy    <       0.47322765 Ry

     total magnetization       =     0.01 Bohr mag/cell
     absolute magnetization    =     5.21 Bohr mag/cell

     iteration #  3     ecut=    70.00 Ry     beta= 0.70
     Davidson diagonalization with overlap

---- Real-time Memory Report at c_bands before calling an iterative solver
            74 MiB given to the printing process from OS
             0 MiB allocation reported by mallinfo(arena+hblkhd)
          2833 MiB available memory on the node where the printing process lives
------------------
     ethr =  2.96E-03,  avg # of iterations =  1.5

     total cpu time spent up to now is        4.0 secs

     total energy              =    -111.51448361 Ry
     estimated scf accuracy    <       0.00570584 Ry

     total magnetization       =    -0.07 Bohr mag/cell
     absolute magnetization    =     5.24 Bohr mag/cell

     iteration #  4     ecut=    70.00 Ry     beta= 0.70
     Davidson diagonalization with overlap

---- Real-time Memory Report at c_bands before calling an iterative solver
            74 MiB given to the printing process from OS
             0 MiB allocation reported by mallinfo(arena+hblkhd)
          2833 MiB available memory on the node where the printing process lives
------------------
     ethr =  3.57E-05,  avg # of iterations =  4.5

     total cpu time spent up to now is        5.1 secs

     total energy              =    -111.50571378 Ry
     estimated scf accuracy    <       0.43245131 Ry

     total magnetization       =     0.92 Bohr mag/cell
     absolute magnetization    =     4.84 Bohr mag/cell

     iteration #  5     ecut=    70.00 Ry     beta= 0.70
     Davidson diagonalization with overlap

---- Real-time Memory Report at c_bands before calling an iterative solver
            74 MiB given to the printing process from OS
             0 MiB allocation reported by mallinfo(arena+hblkhd)
          2832 MiB available memory on the node where the printing process lives
------------------
     ethr =  3.57E-05,  avg # of iterations =  3.9

     total cpu time spent up to now is        6.1 secs

     total energy              =    -111.52436103 Ry
     estimated scf accuracy    <       0.00318340 Ry

     total magnetization       =    -0.02 Bohr mag/cell
     absolute magnetization    =     4.82 Bohr mag/cell

     iteration #  6     ecut=    70.00 Ry     beta= 0.70
     Davidson diagonalization with overlap

---- Real-time Memory Report at c_bands before calling an iterative solver
            74 MiB given to the printing process from OS
             0 MiB allocation reported by mallinfo(arena+hblkhd)
          2832 MiB available memory on the node where the printing process lives
------------------
     ethr =  1.99E-05,  avg # of iterations =  3.2

     total cpu time spent up to now is        7.1 secs

     total energy              =    -111.52547602 Ry
     estimated scf accuracy    <       0.00142638 Ry

     total magnetization       =    -0.04 Bohr mag/cell
     absolute magnetization    =     4.52 Bohr mag/cell

     iteration #  7     ecut=    70.00 Ry     beta= 0.70
     Davidson diagonalization with overlap

---- Real-time Memory Report at c_bands before calling an iterative solver
            75 MiB given to the printing process from OS
             0 MiB allocation reported by mallinfo(arena+hblkhd)
          2831 MiB available memory on the node where the printing process lives
------------------
     ethr =  8.91E-06,  avg # of iterations =  2.7

     total cpu time spent up to now is        8.0 secs

     total energy              =    -111.52722013 Ry
     estimated scf accuracy    <       0.00097300 Ry

     total magnetization       =    -0.05 Bohr mag/cell
     absolute magnetization    =     4.17 Bohr mag/cell

     iteration #  8     ecut=    70.00 Ry     beta= 0.70
     Davidson diagonalization with overlap

---- Real-time Memory Report at c_bands before calling an iterative solver
            75 MiB given to the printing process from OS
             0 MiB allocation reported by mallinfo(arena+hblkhd)
          2831 MiB available memory on the node where the printing process lives
------------------
     ethr =  6.08E-06,  avg # of iterations =  2.0

     total cpu time spent up to now is        7.8 secs

     total energy              =    -111.52758665 Ry
     estimated scf accuracy    <       0.00065499 Ry

     total magnetization       =    -0.13 Bohr mag/cell
     absolute magnetization    =     4.09 Bohr mag/cell

     iteration #  9     ecut=    70.00 Ry     beta= 0.70
     Davidson diagonalization with overlap

---- Real-time Memory Report at c_bands before calling an iterative solver
            75 MiB given to the printing process from OS
             0 MiB allocation reported by mallinfo(arena+hblkhd)
          2832 MiB available memory on the node where the printing process lives
------------------
     ethr =  4.09E-06,  avg # of iterations =  1.7

     total cpu time spent up to now is        8.6 secs

     total energy              =    -111.52774396 Ry
     estimated scf accuracy    <       0.00018419 Ry

     total magnetization       =    -0.11 Bohr mag/cell
     absolute magnetization    =     4.15 Bohr mag/cell

     iteration # 10     ecut=    70.00 Ry     beta= 0.70
     Davidson diagonalization with overlap

---- Real-time Memory Report at c_bands before calling an iterative solver
            75 MiB given to the printing process from OS
             0 MiB allocation reported by mallinfo(arena+hblkhd)
          2831 MiB available memory on the node where the printing process lives
------------------
     ethr =  1.15E-06,  avg # of iterations =  1.1

     total cpu time spent up to now is        9.4 secs

     total energy              =    -111.52765123 Ry
     estimated scf accuracy    <       0.00005770 Ry

     total magnetization       =    -0.14 Bohr mag/cell
     absolute magnetization    =     4.15 Bohr mag/cell

     iteration # 11     ecut=    70.00 Ry     beta= 0.70
     Davidson diagonalization with overlap

---- Real-time Memory Report at c_bands before calling an iterative solver
            75 MiB given to the printing process from OS
             0 MiB allocation reported by mallinfo(arena+hblkhd)
          2831 MiB available memory on the node where the printing process lives
------------------
     ethr =  3.61E-07,  avg # of iterations =  2.0

     total cpu time spent up to now is       10.3 secs

     total energy              =    -111.52768753 Ry
     estimated scf accuracy    <       0.00008464 Ry

     total magnetization       =    -0.09 Bohr mag/cell
     absolute magnetization    =     4.19 Bohr mag/cell

     iteration # 12     ecut=    70.00 Ry     beta= 0.70
     Davidson diagonalization with overlap

---- Real-time Memory Report at c_bands before calling an iterative solver
            75 MiB given to the printing process from OS
             0 MiB allocation reported by mallinfo(arena+hblkhd)
          2829 MiB available memory on the node where the printing process lives
------------------
     ethr =  3.61E-07,  avg # of iterations =  1.9

     total cpu time spent up to now is       11.1 secs

     total energy              =    -111.52763696 Ry
     estimated scf accuracy    <       0.00007557 Ry

     total magnetization       =    -0.10 Bohr mag/cell
     absolute magnetization    =     4.16 Bohr mag/cell

     iteration # 13     ecut=    70.00 Ry     beta= 0.70
     Davidson diagonalization with overlap

---- Real-time Memory Report at c_bands before calling an iterative solver
            75 MiB given to the printing process from OS
             0 MiB allocation reported by mallinfo(arena+hblkhd)
          2831 MiB available memory on the node where the printing process lives
------------------
     ethr =  3.61E-07,  avg # of iterations =  2.0

     total cpu time spent up to now is       11.9 secs

     total energy              =    -111.52771534 Ry
     estimated scf accuracy    <       0.00000224 Ry

     total magnetization       =    -0.01 Bohr mag/cell
     absolute magnetization    =     4.14 Bohr mag/cell

     iteration # 14     ecut=    70.00 Ry     beta= 0.70
     Davidson diagonalization with overlap

---- Real-time Memory Report at c_bands before calling an iterative solver
            75 MiB given to the printing process from OS
             0 MiB allocation reported by mallinfo(arena+hblkhd)
          2831 MiB available memory on the node where the printing process lives
------------------
     ethr =  1.40E-08,  avg # of iterations =  5.9

     total cpu time spent up to now is       13.3 secs

     total energy              =    -111.52771784 Ry
     estimated scf accuracy    <       0.00000230 Ry

     total magnetization       =    -0.00 Bohr mag/cell
     absolute magnetization    =     4.13 Bohr mag/cell

     iteration # 15     ecut=    70.00 Ry     beta= 0.70
     Davidson diagonalization with overlap

---- Real-time Memory Report at c_bands before calling an iterative solver
            75 MiB given to the printing process from OS
             0 MiB allocation reported by mallinfo(arena+hblkhd)
          2831 MiB available memory on the node where the printing process lives
------------------
     ethr =  1.40E-08,  avg # of iterations =  1.8

     Magnetic moment per site  (integrated on atomic sphere of radius R)
     atom   1 (R=0.357)  charge=  6.4795  magn=  1.9847
     atom   2 (R=0.357)  charge=  6.4793  magn= -1.9875

     total cpu time spent up to now is       14.2 secs

     End of self-consistent calculation

 ------ SPIN UP ------------


          k = 0.0625 0.0625 0.0625 (  1572 PWs)   bands (ev):

     5.0098   8.9757   8.9757  11.2074  11.2074  11.3491  13.3639  13.3639
    14.0075  14.2612  14.2612  22.7537

     occupation numbers 
     1.0000   1.0000   1.0000   1.0000   1.0000   1.0000   0.2864   0.2864
     0.0000   0.0000   0.0000   0.0000

          k = 0.0625 0.0625 0.1875 (  1574 PWs)   bands (ev):

     5.6233   9.1977   9.2004  11.1137  11.1446  11.4777  13.1423  13.4468
    13.5560  13.8093  14.2310  19.7798

     occupation numbers 
     1.0000   1.0000   1.0000   1.0000   1.0000   1.0000   1.0830   0.0596
     0.0026   0.0000   0.0000   0.0000

          k = 0.0625 0.0625 0.3125 (  1566 PWs)   bands (ev):

     6.7511   9.4344   9.5822  11.0549  11.0655  11.5719  12.7754  13.1291
    13.2552  13.5327  14.0373  17.0668

     occupation numbers 
     1.0000   1.0000   1.0000   1.0000   1.0000   1.0000   1.0000   1.0796
     0.8461   0.0056   0.0000   0.0000

          k = 0.0625 0.0625 0.4375 (  1578 PWs)   bands (ev):

     8.0921   9.2542   9.9379  10.9761  11.1215  11.5764  12.4536  12.8970
    12.9011  13.4217  13.8327  15.4870

     occupation numbers 
     1.0000   1.0000   1.0000   1.0000   1.0000   1.0000   1.0000   1.0005
     1.0005   0.1031   0.0000   0.0000

          k = 0.0625 0.1875 0.1875 (  1576 PWs)   bands (ev):

     6.2013   9.3392   9.4731  10.9249  11.0142  11.5000  13.1770  13.2656
    13.4140  13.5481  14.2905  19.9640

     occupation numbers 
     1.0000   1.0000   1.0000   1.0000   1.0000   1.0000   1.0692   0.7963
     0.1206   0.0034   0.0000   0.0000

          k = 0.0625 0.1875 0.3125 (  1570 PWs)   bands (ev):

     7.2327   9.4801   9.8598  10.7853  10.9168  11.3089  12.9609  13.0907
    13.3592  13.5582  14.2349  17.5592

     occupation numbers 
     1.0000   1.0000   1.0000   1.0000   1.0000   1.0000   1.0037   1.0571
     0.3071   0.0024   0.0000   0.0000

          k = 0.0625 0.1875 0.4375 (  1575 PWs)   bands (ev):

     8.3860   9.2615  10.1059  10.7240  11.0617  11.2009  12.6581  12.9326
    13.2985  13.8530  14.1152  15.6444

     occupation numbers 
     1.0000   1.0000   1.0000   1.0000   1.0000   1.0000   1.0000   1.0016
     0.6212   0.0000   0.0000   0.0000

          k = 0.0625 0.3125 0.3125 (  1594 PWs)   bands (ev):

     7.9793   9.3348  10.4356  10.5502  10.9040  10.9900  12.8249  13.4135
    13.4672  13.7621  14.3625  17.3594

     occupation numbers 
     1.0000   1.0000   1.0000   1.0000   1.0000   1.0000   1.0000   0.1217
     0.0365   0.0000   0.0000   0.0000

          k = 0.0625 0.3125 0.4375 (  1576 PWs)   bands (ev):

     8.6173   9.0400  10.4507  10.6049  10.8131  11.7078  12.6481  13.4150
    13.5459  14.2501  14.4023  15.7636

     occupation numbers 
     1.0000   1.0000   1.0000   1.0000   1.0000   1.0000   1.0000   0.1181
     0.0037   0.0000   0.0000   0.0000

          k = 0.0625 0.4375 0.4375 (  1582 PWs)   bands (ev):

     8.6829   8.8206  10.2845  10.3324  11.6801  12.3293  13.0035  13.3387
    13.7499  14.5204  14.6628  15.3411

     occupation numbers 
     1.0000   1.0000   1.0000   1.0000   1.0000   1.0000   1.0115   0.4042
     0.0000   0.0000   0.0000   0.0000

          k = 0.1875 0.1875 0.1875 (  1580 PWs)   bands (ev):

     6.7592   9.6110   9.6110  10.7989  10.7989  11.2000  13.3205  13.3205
    13.3218  13.8752  13.8752  20.9290

     occupation numbers 
     1.0000   1.0000   1.0000   1.0000   1.0000   1.0000   0.4999   0.4999
     0.4930   0.0000   0.0000   0.0000

          k = 0.1875 0.1875 0.3125 (  1573 PWs)   bands (ev):

     7.7298   9.8368   9.8402  10.6077  10.6925  10.9035  13.1171  13.2612
    13.4669  13.7892  14.1009  18.2660

     occupation numbers 
     1.0000   1.0000   1.0000   1.0000   1.0000   1.0000   1.0740   0.8178
     0.0368   0.0000   0.0000   0.0000

          k = 0.1875 0.1875 0.4375 (  1571 PWs)   bands (ev):

     8.7574   9.4915  10.0546  10.4286  10.7541  11.2291  12.8031  12.9088
    13.2841  14.1823  14.6060  16.1147

     occupation numbers 
     1.0000   1.0000   1.0000   1.0000   1.0000   1.0000   1.0000   1.0007
     0.7000   0.0000   0.0000   0.0000

          k = 0.1875 0.3125 0.3125 (  1576 PWs)   bands (ev):

     8.4852   9.6958  10.3367  10.4959  10.4997  10.6734  12.9286  13.2130
    13.6894  14.1715  14.3807  18.4445

     occupation numbers 
     1.0000   1.0000   1.0000   1.0000   1.0000   1.0000   1.0014   1.0030
     0.0000   0.0000   0.0000   0.0000

          k = 0.1875 0.3125 0.4375 (  1580 PWs)   bands (ev):

     9.0386   9.4308  10.2509  10.3778  10.6517  11.4247  12.6432  12.9445
    13.7208  14.3726  15.2613  16.7276

     occupation numbers 
     1.0000   1.0000   1.0000   1.0000   1.0000   1.0000   1.0000   1.0023
     0.0000   0.0000   0.0000   0.0000

          k = 0.1875 0.4375 0.4375 (  1576 PWs)   bands (ev):

     9.0267   9.2907  10.1640  10.1878  11.5441  11.8480  12.6196  12.6398
    13.9537  14.5853  15.9949  16.7645

     occupation numbers 
     1.0000   1.0000   1.0000   1.0000   1.0000   1.0000   1.0000   1.0000
     0.0000   0.0000   0.0000   0.0000

          k = 0.3125 0.3125 0.3125 (  1574 PWs)   bands (ev):

     9.2081  10.1558  10.1558  10.2014  10.4638  10.4638  12.8822  12.8822
    14.1084  14.1084  15.2406  20.0751

     occupation numbers 
     1.0000   1.0000   1.0000   1.0000   1.0000   1.0000   1.0003   1.0003
     0.0000   0.0000   0.0000   0.0000

          k = 0.3125 0.3125 0.4375 (  1567 PWs)   bands (ev):

     9.4434  10.0264  10.0486  10.2735  10.4350  11.2463  12.5056  12.6957
    14.1012  14.4482  16.3410  17.9772

     occupation numbers 
     1.0000   1.0000   1.0000   1.0000   1.0000   1.0000   1.0000   1.0000
     0.0000   0.0000   0.0000   0.0000

          k = 0.3125 0.4375 0.4375 (  1573 PWs)   bands (ev):

     9.4769   9.9769   9.9928  10.1497  11.2381  11.2804  12.2769  12.4863
    14.3132  14.6151  17.5404  18.6291

     occupation numbers 
     1.0000   1.0000   1.0000   1.0000   1.0000   1.0000   1.0000   1.0000
     0.0000   0.0000   0.0000   0.0000

          k = 0.4375 0.4375 0.4375 (  1586 PWs)   bands (ev):

     9.7469   9.8707   9.8707  10.9970  10.9970  11.0191  12.1897  12.1897
    14.6325  14.6325  19.1550  20.7545

     occupation numbers 
     1.0000   1.0000   1.0000   1.0000   1.0000   1.0000   1.0000   1.0000
     0.0000   0.0000   0.0000   0.0000

 ------ SPIN DOWN ----------


          k = 0.0625 0.0625 0.0625 (  1572 PWs)   bands (ev):

     5.0093   8.9737   8.9737  11.2069  11.2069  11.3485  13.3617  13.3617
    14.0076  14.2613  14.2613  22.7541

     occupation numbers 
     1.0000   1.0000   1.0000   1.0000   1.0000   1.0000   0.2958   0.2958
     0.0000   0.0000   0.0000   0.0000

          k = 0.0625 0.0625 0.1875 (  1574 PWs)   bands (ev):

     5.6228   9.1957   9.1983  11.1131  11.1440  11.4770  13.1402  13.4449
    13.5560  13.8094  14.2311  19.7790

     occupation numbers 
     1.0000   1.0000   1.0000   1.0000   1.0000   1.0000   1.0827   0.0624
     0.0026   0.0000   0.0000   0.0000

          k = 0.0625 0.0625 0.3125 (  1566 PWs)   bands (ev):

     6.7506   9.4327   9.5800  11.0542  11.0649  11.5712  12.7734  13.1290
    13.2554  13.5309  14.0374  17.0657

     occupation numbers 
     1.0000   1.0000   1.0000   1.0000   1.0000   1.0000   1.0000   1.0796
     0.8454   0.0060   0.0000   0.0000

          k = 0.0625 0.0625 0.4375 (  1578 PWs)   bands (ev):

     8.0913   9.2531   9.9355  10.9753  11.1208  11.5758  12.4519  12.8961
    12.9013  13.4207  13.8329  15.4853

     occupation numbers 
     1.0000   1.0000   1.0000   1.0000   1.0000   1.0000   1.0000   1.0004
     1.0005   0.1053   0.0000   0.0000

          k = 0.0625 0.1875 0.1875 (  1576 PWs)   bands (ev):

     6.2007   9.3371   9.4711  10.9244  11.0135  11.4993  13.1757  13.2652
    13.4118  13.5481  14.2906  19.9631

     occupation numbers 
     1.0000   1.0000   1.0000   1.0000   1.0000   1.0000   1.0705   0.7981
     0.1257   0.0034   0.0000   0.0000

          k = 0.0625 0.1875 0.3125 (  1570 PWs)   bands (ev):

     7.2321   9.4783   9.8578  10.7848  10.9159  11.3082  12.9604  13.0889
    13.3592  13.5566  14.2348  17.5581

     occupation numbers 
     1.0000   1.0000   1.0000   1.0000   1.0000   1.0000   1.0037   1.0559
     0.3069   0.0025   0.0000   0.0000

          k = 0.0625 0.1875 0.4375 (  1575 PWs)   bands (ev):

     8.3852   9.2604  10.1037  10.7233  11.0612  11.2001  12.6571  12.9310
    13.2979  13.8527  14.1150  15.6429

     occupation numbers 
     1.0000   1.0000   1.0000   1.0000   1.0000   1.0000   1.0000   1.0015
     0.6245   0.0000   0.0000   0.0000

          k = 0.0625 0.3125 0.3125 (  1594 PWs)   bands (ev):

     7.9786   9.3333  10.4337  10.5496  10.9034  10.9889  12.8245  13.4118
    13.4654  13.7622  14.3623  17.3583

     occupation numbers 
     1.0000   1.0000   1.0000   1.0000   1.0000   1.0000   1.0000   0.1259
     0.0382   0.0000   0.0000   0.0000

          k = 0.0625 0.3125 0.4375 (  1576 PWs)   bands (ev):

     8.6165   9.0390  10.4502  10.6044  10.8111  11.7067  12.6470  13.4135
    13.5447  14.2501  14.4017  15.7623

     occupation numbers 
     1.0000   1.0000   1.0000   1.0000   1.0000   1.0000   1.0000   0.1215
     0.0038   0.0000   0.0000   0.0000

          k = 0.0625 0.4375 0.4375 (  1582 PWs)   bands (ev):

     8.6822   8.8195  10.2840  10.3320  11.6777  12.3279  13.0030  13.3378
    13.7482  14.5195  14.6627  15.3400

     occupation numbers 
     1.0000   1.0000   1.0000   1.0000   1.0000   1.0000   1.0114   0.4090
     0.0000   0.0000   0.0000   0.0000

          k = 0.1875 0.1875 0.1875 (  1580 PWs)   bands (ev):

     6.7587   9.6090   9.6090  10.7983  10.7983  11.1994  13.3187  13.3187
    13.3219  13.8749  13.8749  20.9282

     occupation numbers 
     1.0000   1.0000   1.0000   1.0000   1.0000   1.0000   0.5098   0.5098
     0.4921   0.0000   0.0000   0.0000

          k = 0.1875 0.1875 0.3125 (  1573 PWs)   bands (ev):

     7.7293   9.8348   9.8386  10.6069  10.6919  10.9028  13.1162  13.2599
    13.4658  13.7891  14.1001  18.2651

     occupation numbers 
     1.0000   1.0000   1.0000   1.0000   1.0000   1.0000   1.0735   0.8244
     0.0378   0.0000   0.0000   0.0000

          k = 0.1875 0.1875 0.4375 (  1571 PWs)   bands (ev):

     8.7567   9.4905  10.0526  10.4277  10.7536  11.2284  12.8014  12.9085
    13.2824  14.1819  14.6054  16.1136

     occupation numbers 
     1.0000   1.0000   1.0000   1.0000   1.0000   1.0000   1.0000   1.0007
     0.7088   0.0000   0.0000   0.0000

          k = 0.1875 0.3125 0.3125 (  1576 PWs)   bands (ev):

     8.4847   9.6944  10.3356  10.4953  10.4983  10.6724  12.9279  13.2118
    13.6878  14.1703  14.3806  18.4436

     occupation numbers 
     1.0000   1.0000   1.0000   1.0000   1.0000   1.0000   1.0013   1.0063
     0.0000   0.0000   0.0000   0.0000

          k = 0.1875 0.3125 0.4375 (  1580 PWs)   bands (ev):

     9.0380   9.4297  10.2503  10.3772  10.6501  11.4240  12.6419  12.9437
    13.7190  14.3713  15.2610  16.7269

     occupation numbers 
     1.0000   1.0000   1.0000   1.0000   1.0000   1.0000   1.0000   1.0022
     0.0000   0.0000   0.0000   0.0000

          k = 0.1875 0.4375 0.4375 (  1576 PWs)   bands (ev):

     9.0260   9.2897  10.1634  10.1873  11.5423  11.8474  12.6185  12.6387
    13.9519  14.5835  15.9946  16.7640

     occupation numbers 
     1.0000   1.0000   1.0000   1.0000   1.0000   1.0000   1.0000   1.0000
     0.0000   0.0000   0.0000   0.0000

          k = 0.3125 0.3125 0.3125 (  1574 PWs)   bands (ev):

     9.2075  10.1550  10.1550  10.2012  10.4623  10.4623  12.8812  12.8812
    14.1067  14.1067  15.2405  20.0744

     occupation numbers 
     1.0000   1.0000   1.0000   1.0000   1.0000   1.0000   1.0003   1.0003
     0.0000   0.0000   0.0000   0.0000

          k = 0.3125 0.3125 0.4375 (  1567 PWs)   bands (ev):

     9.4428  10.0257  10.0481  10.2726  10.4335  11.2457  12.5040  12.6947
    14.0993  14.4464  16.3407  17.9766

     occupation numbers 
     1.0000   1.0000   1.0000   1.0000   1.0000   1.0000   1.0000   1.0000
     0.0000   0.0000   0.0000   0.0000

          k = 0.3125 0.4375 0.4375 (  1573 PWs)   bands (ev):

     9.4762   9.9764   9.9922  10.1488  11.2372  11.2801  12.2750  12.4848
    14.3113  14.6131  17.5400  18.6286

     occupation numbers 
     1.0000   1.0000   1.0000   1.0000   1.0000   1.0000   1.0000   1.0000
     0.0000   0.0000   0.0000   0.0000

          k = 0.4375 0.4375 0.4375 (  1586 PWs)   bands (ev):

     9.7463   9.8700   9.8700  10.9965  10.9965  11.0191  12.1875  12.1875
    14.6305  14.6305  19.1546  20.7540

     occupation numbers 
     1.0000   1.0000   1.0000   1.0000   1.0000   1.0000   1.0000   1.0000
     0.0000   0.0000   0.0000   0.0000

     the Fermi energy is    13.3394 ev

!    total energy              =    -111.52771909 Ry
     estimated scf accuracy    <       0.00000005 Ry
     smearing contrib. (-TS)   =      -0.00087742 Ry
     internal energy E=F+TS    =    -111.52684167 Ry

     The total energy is F=E-TS. E is the sum of the following terms:
     one-electron contribution =      13.82503179 Ry
     hartree contribution      =      13.32248289 Ry
     xc contribution           =     -52.72935976 Ry
     ewald contribution        =     -85.94499659 Ry

     total magnetization       =    -0.00 Bohr mag/cell
     absolute magnetization    =     4.12 Bohr mag/cell

     convergence has been achieved in  15 iterations

     Writing all to output data dir ./output/fe.save/ :
     XML data file, charge density, pseudopotentials, collected wavefunctions

     init_run     :      0.81s CPU      0.91s WALL (       1 calls)
     electrons    :     12.69s CPU     13.00s WALL (       1 calls)

     Called by init_run:
     wfcinit      :      0.19s CPU      0.21s WALL (       1 calls)
     wfcinit:atom :      0.00s CPU      0.00s WALL (      40 calls)
     wfcinit:wfcr :      0.17s CPU      0.18s WALL (      40 calls)
     potinit      :      0.13s CPU      0.13s WALL (       1 calls)
     hinit0       :      0.34s CPU      0.38s WALL (       1 calls)

     Called by electrons:
     c_bands      :      7.95s CPU      7.86s WALL (      15 calls)
     sum_band     :      3.31s CPU      3.61s WALL (      15 calls)
     v_of_rho     :      0.32s CPU      0.34s WALL (      16 calls)
     v_h          :      0.01s CPU      0.01s WALL (      16 calls)
     v_xc         :      0.31s CPU      0.33s WALL (      16 calls)
     newd         :      1.13s CPU      1.19s WALL (      16 calls)
     mix_rho      :      0.04s CPU      0.07s WALL (      15 calls)

     Called by c_bands:
     init_us_2    :      0.19s CPU      0.22s WALL (    1240 calls)
     cegterg      :      7.47s CPU      7.32s WALL (     600 calls)

     Called by sum_band:
     sum_band:wei :      0.01s CPU      0.01s WALL (      15 calls)
     sum_band:loo :      1.00s CPU      1.18s WALL (      15 calls)
     sum_band:buf :      0.01s CPU      0.01s WALL (     600 calls)
     sum_band:ini :      0.09s CPU      0.11s WALL (     600 calls)
     sum_band:cal :      0.22s CPU      0.25s WALL (     600 calls)
     sum_band:bec :      0.01s CPU      0.01s WALL (     600 calls)
     addusdens    :      2.27s CPU      2.39s WALL (      15 calls)
                                        0.00s GPU  (      15 calls)
     addusd:skk   :      0.00s CPU      0.00s WALL (      30 calls)
                                        0.00s GPU  (      30 calls)

     Called by *egterg:
     cdiaghg      :      0.43s CPU      0.49s WALL (    2236 calls)
     cegterg:over :      0.46s CPU      0.52s WALL (    1636 calls)
     cegterg:upda :      0.24s CPU      0.27s WALL (    1636 calls)
     cegterg:last :      0.58s CPU      0.64s WALL (    1285 calls)
     h_psi        :      5.05s CPU      5.64s WALL (    2276 calls)
     s_psi        :      0.58s CPU     -0.38s WALL (    2276 calls)
     g_psi        :      0.03s CPU      0.03s WALL (    1636 calls)

     Called by h_psi:
     h_psi:calbec :      0.61s CPU      0.68s WALL (    2276 calls)
     vloc_psi     :      3.83s CPU      4.28s WALL (    2276 calls)
     add_vuspsi   :      0.58s CPU      0.65s WALL (    2276 calls)

     General routines
     calbec       :      0.81s CPU      0.92s WALL (    2876 calls)
     fft          :      0.23s CPU      0.25s WALL (     394 calls)
     ffts         :      0.08s CPU      0.09s WALL (      62 calls)
     fftw         :      3.95s CPU      4.45s WALL (   45622 calls)
     interpolate  :      0.09s CPU      0.10s WALL (      32 calls)

     Parallel routines

     PWSCF        :     13.74s CPU     14.27s WALL


   This run was terminated on:  10:20:24  17Apr2025            

=------------------------------------------------------------------------------=
   JOB DONE.
=------------------------------------------------------------------------------=
